MODEL 2
REMARK VINA RESULT:    -8.544      5.607      8.757
REMARK INTER + INTRA:         -15.305
REMARK INTER:                 -13.750
REMARK INTRA:                  -1.556
REMARK UNBOUND:                -1.267
REMARK SMILES O=C(CCCCc1ccc2c(n1)NCCC2)NCC[C@H](NC(=O)c1nc2ccccc2s1)C(=O)[O-]
REMARK SMILES IDX 2 1 17 2 1 3 3 5 4 6 5 7 6 8 7 9 8 10 12 11 9 12 11 13 10 14
REMARK SMILES IDX 13 15 16 16 14 17 15 18 18 20 19 21 20 22 33 23 34 24 35 25
REMARK SMILES IDX 21 26 22 27 23 28 24 30 32 31 25 32 31 33 26 34 30 35 27 36
REMARK SMILES IDX 29 37 28 38
REMARK H PARENT 17 4 13 19 21 29
ROOT
ATOM      1  C   UNL     1      19.127  40.402  40.494  1.00  0.00    +0.219 C 
ATOM      2  N   UNL     1      20.436  40.884  40.597  1.00  0.00    -0.356 N 
ATOM      3  O   UNL     1      18.204  41.095  40.959  1.00  0.00    -0.275 OA
ATOM      4  H   UNL     1      21.215  40.329  40.215  1.00  0.00    +0.163 HD
ENDROOT
BRANCH   1   5
ATOM      5  C   UNL     1      18.813  39.108  39.824  1.00  0.00    +0.100 C 
BRANCH   5   6
ATOM      6  C   UNL     1      19.874  38.736  38.768  1.00  0.00    +0.010 C 
BRANCH   6   7
ATOM      7  C   UNL     1      20.810  37.590  39.124  1.00  0.00    +0.007 C 
BRANCH   7   8
ATOM      8  C   UNL     1      20.640  37.147  40.592  1.00  0.00    +0.056 C 
BRANCH   8   9
ATOM      9  C   UNL     1      21.796  37.586  41.526  1.00  0.00    +0.043 A 
ATOM     10  C   UNL     1      22.845  38.350  40.978  1.00  0.00    +0.024 A 
ATOM     11  N   UNL     1      21.797  37.265  42.834  1.00  0.00    -0.236 NA
ATOM     12  C   UNL     1      23.909  38.766  41.808  1.00  0.00    +0.009 A 
ATOM     13  C   UNL     1      22.827  37.660  43.655  1.00  0.00    +0.129 A 
ATOM     14  C   UNL     1      23.924  38.426  43.186  1.00  0.00    -0.005 A 
ATOM     15  N   UNL     1      22.740  37.265  45.052  1.00  0.00    -0.370 N 
ATOM     16  C   UNL     1      25.044  38.863  44.084  1.00  0.00    +0.041 C 
ATOM     17  C   UNL     1      24.008  37.169  45.781  1.00  0.00    +0.115 C 
ATOM     18  C   UNL     1      25.007  38.334  45.556  1.00  0.00    +0.026 C 
ATOM     19  H   UNL     1      21.837  37.065  45.505  1.00  0.00    +0.162 HD
ENDBRANCH   8   9
ENDBRANCH   7   8
ENDBRANCH   6   7
ENDBRANCH   5   6
ENDBRANCH   1   5
BRANCH   2  20
ATOM     20  C   UNL     1      20.706  42.135  41.226  1.00  0.00    +0.118 C 
BRANCH  20  21
ATOM     21  C   UNL     1      21.145  43.183  40.214  1.00  0.00    +0.052 C 
BRANCH  21  22
ATOM     22  C   UNL     1      22.566  43.642  40.525  1.00  0.00    +0.130 C 
BRANCH  22  23
ATOM     23  C   UNL     1      23.468  42.376  40.728  1.00  0.00    +0.064 C 
ATOM     24  O   UNL     1      23.590  41.511  39.785  1.00  0.00    -0.548 OA
ATOM     25  O   UNL     1      24.076  42.245  41.848  1.00  0.00    -0.548 OA
ENDBRANCH  22  23
BRANCH  22  26
ATOM     26  N   UNL     1      23.143  44.522  39.497  1.00  0.00    -0.342 N 
ATOM     27  C   UNL     1      24.231  45.358  39.744  1.00  0.00    +0.280 C 
ATOM     28  O   UNL     1      24.768  45.494  40.847  1.00  0.00    -0.267 OA
ATOM     29  H   UNL     1      22.726  44.520  38.556  1.00  0.00    +0.164 HD
BRANCH  27  30
ATOM     30  C   UNL     1      24.792  46.222  38.601  1.00  0.00    +0.182 A 
ATOM     31  S   UNL     1      26.543  46.413  38.149  1.00  0.00    -0.109 S 
ATOM     32  N   UNL     1      24.043  46.928  37.740  1.00  0.00    -0.231 NA
ATOM     33  C   UNL     1      26.168  47.511  36.782  1.00  0.00    +0.055 A 
ATOM     34  C   UNL     1      24.772  47.648  36.747  1.00  0.00    +0.082 A 
ATOM     35  C   UNL     1      26.975  48.181  35.843  1.00  0.00    +0.021 A 
ATOM     36  C   UNL     1      24.176  48.473  35.748  1.00  0.00    +0.030 A 
ATOM     37  C   UNL     1      26.380  49.000  34.856  1.00  0.00    +0.002 A 
ATOM     38  C   UNL     1      24.971  49.146  34.807  1.00  0.00    +0.002 A 
ENDBRANCH  27  30
ENDBRANCH  22  26
ENDBRANCH  21  22
ENDBRANCH  20  21
ENDBRANCH   2  20
TORSDOF 11
ENDMDL
