MODEL 13
REMARK VINA RESULT:    -8.065      1.480      1.992
REMARK INTER + INTRA:         -14.518
REMARK INTER:                 -12.775
REMARK INTRA:                  -1.743
REMARK UNBOUND:                -1.267
REMARK SMILES O=C(CCCCc1ccc2c(n1)NCCC2)NCC[C@H](NC(=O)c1nc2ccccc2s1)C(=O)[O-]
REMARK SMILES IDX 2 1 17 2 1 3 3 5 4 6 5 7 6 8 7 9 8 10 12 11 9 12 11 13 10 14
REMARK SMILES IDX 13 15 16 16 14 17 15 18 18 20 19 21 20 22 33 23 34 24 35 25
REMARK SMILES IDX 21 26 22 27 23 28 24 30 32 31 25 32 31 33 26 34 30 35 27 36
REMARK SMILES IDX 29 37 28 38
REMARK H PARENT 17 4 13 19 21 29
ROOT
ATOM      1  C   UNL     1      18.826  43.025  40.688  1.00  0.00    +0.219 C 
ATOM      2  N   UNL     1      19.156  41.699  40.387  1.00  0.00    -0.356 N 
ATOM      3  O   UNL     1      19.733  43.787  41.070  1.00  0.00    -0.275 OA
ATOM      4  H   UNL     1      18.421  41.053  40.064  1.00  0.00    +0.163 HD
ENDROOT
BRANCH   1   5
ATOM      5  C   UNL     1      17.438  43.547  40.537  1.00  0.00    +0.100 C 
BRANCH   5   6
ATOM      6  C   UNL     1      17.071  44.536  41.662  1.00  0.00    +0.010 C 
BRANCH   6   7
ATOM      7  C   UNL     1      16.367  43.948  42.877  1.00  0.00    +0.007 C 
BRANCH   7   8
ATOM      8  C   UNL     1      15.116  43.139  42.478  1.00  0.00    +0.056 C 
BRANCH   8   9
ATOM      9  C   UNL     1      15.180  41.639  42.861  1.00  0.00    +0.043 A 
ATOM     10  C   UNL     1      14.036  41.044  43.430  1.00  0.00    +0.024 A 
ATOM     11  N   UNL     1      16.291  40.910  42.645  1.00  0.00    -0.236 NA
ATOM     12  C   UNL     1      14.067  39.678  43.785  1.00  0.00    +0.009 A 
ATOM     13  C   UNL     1      16.338  39.579  42.989  1.00  0.00    +0.129 A 
ATOM     14  C   UNL     1      15.236  38.902  43.569  1.00  0.00    -0.005 A 
ATOM     15  N   UNL     1      17.582  38.875  42.717  1.00  0.00    -0.370 N 
ATOM     16  C   UNL     1      15.285  37.449  43.937  1.00  0.00    +0.041 C 
ATOM     17  C   UNL     1      17.855  37.696  43.542  1.00  0.00    +0.115 C 
ATOM     18  C   UNL     1      16.662  36.728  43.755  1.00  0.00    +0.026 C 
ATOM     19  H   UNL     1      18.235  39.188  41.984  1.00  0.00    +0.162 HD
ENDBRANCH   8   9
ENDBRANCH   7   8
ENDBRANCH   6   7
ENDBRANCH   5   6
ENDBRANCH   1   5
BRANCH   2  20
ATOM     20  C   UNL     1      20.496  41.232  40.520  1.00  0.00    +0.118 C 
BRANCH  20  21
ATOM     21  C   UNL     1      20.626  39.782  40.077  1.00  0.00    +0.052 C 
BRANCH  21  22
ATOM     22  C   UNL     1      20.986  38.904  41.272  1.00  0.00    +0.130 C 
BRANCH  22  23
ATOM     23  C   UNL     1      20.471  37.449  40.998  1.00  0.00    +0.064 C 
ATOM     24  O   UNL     1      21.196  36.437  41.314  1.00  0.00    -0.548 OA
ATOM     25  O   UNL     1      19.313  37.313  40.466  1.00  0.00    -0.548 OA
ENDBRANCH  22  23
BRANCH  22  26
ATOM     26  N   UNL     1      22.424  38.888  41.583  1.00  0.00    -0.342 N 
ATOM     27  C   UNL     1      22.928  39.220  42.840  1.00  0.00    +0.280 C 
ATOM     28  O   UNL     1      22.239  39.620  43.783  1.00  0.00    -0.267 OA
ATOM     29  H   UNL     1      23.086  38.620  40.842  1.00  0.00    +0.164 HD
BRANCH  27  30
ATOM     30  C   UNL     1      24.444  39.144  43.088  1.00  0.00    +0.182 A 
ATOM     31  S   UNL     1      25.284  39.254  44.697  1.00  0.00    -0.109 S 
ATOM     32  N   UNL     1      25.364  38.938  42.133  1.00  0.00    -0.231 NA
ATOM     33  C   UNL     1      26.908  39.041  43.971  1.00  0.00    +0.055 A 
ATOM     34  C   UNL     1      26.715  38.889  42.589  1.00  0.00    +0.082 A 
ATOM     35  C   UNL     1      28.205  39.007  44.518  1.00  0.00    +0.021 A 
ATOM     36  C   UNL     1      27.846  38.697  41.742  1.00  0.00    +0.030 A 
ATOM     37  C   UNL     1      29.324  38.818  43.674  1.00  0.00    +0.002 A 
ATOM     38  C   UNL     1      29.144  38.662  42.277  1.00  0.00    +0.002 A 
ENDBRANCH  27  30
ENDBRANCH  22  26
ENDBRANCH  21  22
ENDBRANCH  20  21
ENDBRANCH   2  20
TORSDOF 11
ENDMDL
