MODEL 10
REMARK VINA RESULT:    -8.158      4.052      6.975
REMARK INTER + INTRA:         -14.671
REMARK INTER:                 -12.174
REMARK INTRA:                  -2.497
REMARK UNBOUND:                -1.267
REMARK SMILES O=C(CCCCc1ccc2c(n1)NCCC2)NCC[C@H](NC(=O)c1nc2ccccc2s1)C(=O)[O-]
REMARK SMILES IDX 2 1 17 2 1 3 3 5 4 6 5 7 6 8 7 9 8 10 12 11 9 12 11 13 10 14
REMARK SMILES IDX 13 15 16 16 14 17 15 18 18 20 19 21 20 22 33 23 34 24 35 25
REMARK SMILES IDX 21 26 22 27 23 28 24 30 32 31 25 32 31 33 26 34 30 35 27 36
REMARK SMILES IDX 29 37 28 38
REMARK H PARENT 17 4 13 19 21 29
ROOT
ATOM      1  C   UNL     1      18.445  41.919  40.731  1.00  0.00    +0.219 C 
ATOM      2  N   UNL     1      19.730  41.581  40.291  1.00  0.00    -0.356 N 
ATOM      3  O   UNL     1      17.896  41.184  41.569  1.00  0.00    -0.275 OA
ATOM      4  H   UNL     1      20.205  42.179  39.600  1.00  0.00    +0.163 HD
ENDROOT
BRANCH   1   5
ATOM      5  C   UNL     1      17.741  43.141  40.245  1.00  0.00    +0.100 C 
BRANCH   5   6
ATOM      6  C   UNL     1      17.761  44.270  41.294  1.00  0.00    +0.010 C 
BRANCH   6   7
ATOM      7  C   UNL     1      16.409  44.837  41.704  1.00  0.00    +0.007 C 
BRANCH   7   8
ATOM      8  C   UNL     1      15.276  43.807  41.518  1.00  0.00    +0.056 C 
BRANCH   8   9
ATOM      9  C   UNL     1      14.246  43.779  42.674  1.00  0.00    +0.043 A 
ATOM     10  C   UNL     1      14.713  43.962  43.991  1.00  0.00    +0.024 A 
ATOM     11  N   UNL     1      12.933  43.602  42.435  1.00  0.00    -0.236 NA
ATOM     12  C   UNL     1      13.794  43.945  45.063  1.00  0.00    +0.009 A 
ATOM     13  C   UNL     1      12.025  43.579  43.469  1.00  0.00    +0.129 A 
ATOM     14  C   UNL     1      12.408  43.751  44.823  1.00  0.00    -0.005 A 
ATOM     15  N   UNL     1      10.629  43.381  43.111  1.00  0.00    -0.370 N 
ATOM     16  C   UNL     1      11.418  43.734  45.949  1.00  0.00    +0.041 C 
ATOM     17  C   UNL     1       9.768  42.808  44.148  1.00  0.00    +0.115 C 
ATOM     18  C   UNL     1       9.936  43.400  45.571  1.00  0.00    +0.026 C 
ATOM     19  H   UNL     1      10.266  43.632  42.180  1.00  0.00    +0.162 HD
ENDBRANCH   8   9
ENDBRANCH   7   8
ENDBRANCH   6   7
ENDBRANCH   5   6
ENDBRANCH   1   5
BRANCH   2  20
ATOM     20  C   UNL     1      20.388  40.418  40.787  1.00  0.00    +0.118 C 
BRANCH  20  21
ATOM     21  C   UNL     1      20.524  39.353  39.708  1.00  0.00    +0.052 C 
BRANCH  21  22
ATOM     22  C   UNL     1      19.790  38.086  40.134  1.00  0.00    +0.130 C 
BRANCH  22  23
ATOM     23  C   UNL     1      20.848  37.027  40.600  1.00  0.00    +0.064 C 
ATOM     24  O   UNL     1      20.478  35.993  41.268  1.00  0.00    -0.548 OA
ATOM     25  O   UNL     1      22.075  37.225  40.285  1.00  0.00    -0.548 OA
ENDBRANCH  22  23
BRANCH  22  26
ATOM     26  N   UNL     1      18.789  38.307  41.189  1.00  0.00    -0.342 N 
ATOM     27  C   UNL     1      17.524  37.720  41.164  1.00  0.00    +0.280 C 
ATOM     28  O   UNL     1      17.098  37.024  40.239  1.00  0.00    -0.267 OA
ATOM     29  H   UNL     1      19.032  38.921  41.979  1.00  0.00    +0.164 HD
BRANCH  27  30
ATOM     30  C   UNL     1      16.550  37.980  42.327  1.00  0.00    +0.182 A 
ATOM     31  S   UNL     1      16.297  36.921  43.783  1.00  0.00    -0.109 S 
ATOM     32  N   UNL     1      15.775  39.069  42.444  1.00  0.00    -0.231 NA
ATOM     33  C   UNL     1      15.081  38.027  44.494  1.00  0.00    +0.055 A 
ATOM     34  C   UNL     1      14.957  39.112  43.612  1.00  0.00    +0.082 A 
ATOM     35  C   UNL     1      14.315  37.977  45.675  1.00  0.00    +0.021 A 
ATOM     36  C   UNL     1      14.049  40.166  43.923  1.00  0.00    +0.030 A 
ATOM     37  C   UNL     1      13.415  39.024  45.979  1.00  0.00    +0.002 A 
ATOM     38  C   UNL     1      13.281  40.126  45.098  1.00  0.00    +0.002 A 
ENDBRANCH  27  30
ENDBRANCH  22  26
ENDBRANCH  21  22
ENDBRANCH  20  21
ENDBRANCH   2  20
TORSDOF 11
ENDMDL
