MODEL 9
REMARK VINA RESULT:    -8.174      3.707      7.112
REMARK INTER + INTRA:         -14.698
REMARK INTER:                 -12.004
REMARK INTRA:                  -2.694
REMARK UNBOUND:                -1.267
REMARK SMILES O=C(CCCCc1ccc2c(n1)NCCC2)NCC[C@H](NC(=O)c1nc2ccccc2s1)C(=O)[O-]
REMARK SMILES IDX 2 1 17 2 1 3 3 5 4 6 5 7 6 8 7 9 8 10 12 11 9 12 11 13 10 14
REMARK SMILES IDX 13 15 16 16 14 17 15 18 18 20 19 21 20 22 33 23 34 24 35 25
REMARK SMILES IDX 21 26 22 27 23 28 24 30 32 31 25 32 31 33 26 34 30 35 27 36
REMARK SMILES IDX 29 37 28 38
REMARK H PARENT 17 4 13 19 21 29
ROOT
ATOM      1  C   UNL     1      19.081  42.024  40.506  1.00  0.00    +0.219 C 
ATOM      2  N   UNL     1      20.443  41.699  40.509  1.00  0.00    -0.356 N 
ATOM      3  O   UNL     1      18.286  41.226  39.980  1.00  0.00    -0.275 OA
ATOM      4  H   UNL     1      21.119  42.343  40.944  1.00  0.00    +0.163 HD
ENDROOT
BRANCH   1   5
ATOM      5  C   UNL     1      18.567  43.273  41.138  1.00  0.00    +0.100 C 
BRANCH   5   6
ATOM      6  C   UNL     1      17.152  43.627  40.639  1.00  0.00    +0.010 C 
BRANCH   6   7
ATOM      7  C   UNL     1      16.419  44.720  41.405  1.00  0.00    +0.007 C 
BRANCH   7   8
ATOM      8  C   UNL     1      16.131  44.303  42.862  1.00  0.00    +0.056 C 
BRANCH   8   9
ATOM      9  C   UNL     1      14.648  43.951  43.141  1.00  0.00    +0.043 A 
ATOM     10  C   UNL     1      13.844  43.535  42.061  1.00  0.00    +0.024 A 
ATOM     11  N   UNL     1      14.136  44.021  44.384  1.00  0.00    -0.236 NA
ATOM     12  C   UNL     1      12.490  43.204  42.289  1.00  0.00    +0.009 A 
ATOM     13  C   UNL     1      12.818  43.705  44.622  1.00  0.00    +0.129 A 
ATOM     14  C   UNL     1      11.939  43.282  43.594  1.00  0.00    -0.005 A 
ATOM     15  N   UNL     1      12.357  43.811  45.997  1.00  0.00    -0.370 N 
ATOM     16  C   UNL     1      10.504  42.931  43.855  1.00  0.00    +0.041 C 
ATOM     17  C   UNL     1      10.921  44.034  46.186  1.00  0.00    +0.115 C 
ATOM     18  C   UNL     1       9.981  43.163  45.312  1.00  0.00    +0.026 C 
ATOM     19  H   UNL     1      13.004  43.733  46.795  1.00  0.00    +0.162 HD
ENDBRANCH   8   9
ENDBRANCH   7   8
ENDBRANCH   6   7
ENDBRANCH   5   6
ENDBRANCH   1   5
BRANCH   2  20
ATOM     20  C   UNL     1      20.905  40.488  39.916  1.00  0.00    +0.118 C 
BRANCH  20  21
ATOM     21  C   UNL     1      21.267  39.455  40.973  1.00  0.00    +0.052 C 
BRANCH  21  22
ATOM     22  C   UNL     1      20.201  38.365  41.018  1.00  0.00    +0.130 C 
BRANCH  22  23
ATOM     23  C   UNL     1      20.846  37.057  41.595  1.00  0.00    +0.064 C 
ATOM     24  O   UNL     1      21.770  37.130  42.485  1.00  0.00    -0.548 OA
ATOM     25  O   UNL     1      20.414  35.932  41.159  1.00  0.00    -0.548 OA
ENDBRANCH  22  23
BRANCH  22  26
ATOM     26  N   UNL     1      19.009  38.734  41.797  1.00  0.00    -0.342 N 
ATOM     27  C   UNL     1      17.735  38.249  41.502  1.00  0.00    +0.280 C 
ATOM     28  O   UNL     1      17.471  37.528  40.536  1.00  0.00    -0.267 OA
ATOM     29  H   UNL     1      19.119  39.378  42.592  1.00  0.00    +0.164 HD
BRANCH  27  30
ATOM     30  C   UNL     1      16.548  38.661  42.390  1.00  0.00    +0.182 A 
ATOM     31  S   UNL     1      16.643  39.361  44.065  1.00  0.00    -0.109 S 
ATOM     32  N   UNL     1      15.260  38.599  42.019  1.00  0.00    -0.231 NA
ATOM     33  C   UNL     1      14.862  39.512  44.205  1.00  0.00    +0.055 A 
ATOM     34  C   UNL     1      14.322  39.047  42.996  1.00  0.00    +0.082 A 
ATOM     35  C   UNL     1      14.018  39.975  45.232  1.00  0.00    +0.021 A 
ATOM     36  C   UNL     1      12.908  39.050  42.815  1.00  0.00    +0.030 A 
ATOM     37  C   UNL     1      12.616  39.975  45.049  1.00  0.00    +0.002 A 
ATOM     38  C   UNL     1      12.056  39.510  43.833  1.00  0.00    +0.002 A 
ENDBRANCH  27  30
ENDBRANCH  22  26
ENDBRANCH  21  22
ENDBRANCH  20  21
ENDBRANCH   2  20
TORSDOF 11
ENDMDL
