MODEL 15
REMARK VINA RESULT:    -7.942      3.479      6.570
REMARK INTER + INTRA:         -14.316
REMARK INTER:                 -12.347
REMARK INTRA:                  -1.969
REMARK UNBOUND:                -1.267
REMARK SMILES O=C(CCCCc1ccc2c(n1)NCCC2)NCC[C@H](NC(=O)c1nc2ccccc2s1)C(=O)[O-]
REMARK SMILES IDX 2 1 17 2 1 3 3 5 4 6 5 7 6 8 7 9 8 10 12 11 9 12 11 13 10 14
REMARK SMILES IDX 13 15 16 16 14 17 15 18 18 20 19 21 20 22 33 23 34 24 35 25
REMARK SMILES IDX 21 26 22 27 23 28 24 30 32 31 25 32 31 33 26 34 30 35 27 36
REMARK SMILES IDX 29 37 28 38
REMARK H PARENT 17 4 13 19 21 29
ROOT
ATOM      1  C   UNL     1      19.994  42.795  40.627  1.00  0.00    +0.219 C 
ATOM      2  N   UNL     1      20.390  41.490  40.312  1.00  0.00    -0.356 N 
ATOM      3  O   UNL     1      20.877  43.644  40.841  1.00  0.00    -0.275 OA
ATOM      4  H   UNL     1      19.675  40.772  40.126  1.00  0.00    +0.163 HD
ENDROOT
BRANCH   1   5
ATOM      5  C   UNL     1      18.558  43.192  40.682  1.00  0.00    +0.100 C 
BRANCH   5   6
ATOM      6  C   UNL     1      18.302  44.274  41.750  1.00  0.00    +0.010 C 
BRANCH   6   7
ATOM      7  C   UNL     1      16.949  44.972  41.696  1.00  0.00    +0.007 C 
BRANCH   7   8
ATOM      8  C   UNL     1      15.869  44.076  41.055  1.00  0.00    +0.056 C 
BRANCH   8   9
ATOM      9  C   UNL     1      14.833  43.513  42.059  1.00  0.00    +0.043 A 
ATOM     10  C   UNL     1      13.465  43.605  41.731  1.00  0.00    +0.024 A 
ATOM     11  N   UNL     1      15.220  42.932  43.210  1.00  0.00    -0.236 NA
ATOM     12  C   UNL     1      12.500  43.096  42.627  1.00  0.00    +0.009 A 
ATOM     13  C   UNL     1      14.292  42.434  44.095  1.00  0.00    +0.129 A 
ATOM     14  C   UNL     1      12.897  42.489  43.847  1.00  0.00    -0.005 A 
ATOM     15  N   UNL     1      14.806  41.825  45.311  1.00  0.00    -0.370 N 
ATOM     16  C   UNL     1      11.886  41.939  44.809  1.00  0.00    +0.041 C 
ATOM     17  C   UNL     1      13.902  41.810  46.464  1.00  0.00    +0.115 C 
ATOM     18  C   UNL     1      12.437  41.395  46.169  1.00  0.00    +0.026 C 
ATOM     19  H   UNL     1      15.755  41.425  45.360  1.00  0.00    +0.162 HD
ENDBRANCH   8   9
ENDBRANCH   7   8
ENDBRANCH   6   7
ENDBRANCH   5   6
ENDBRANCH   1   5
BRANCH   2  20
ATOM     20  C   UNL     1      21.771  41.143  40.246  1.00  0.00    +0.118 C 
BRANCH  20  21
ATOM     21  C   UNL     1      22.033  39.784  40.879  1.00  0.00    +0.052 C 
BRANCH  21  22
ATOM     22  C   UNL     1      20.992  38.778  40.399  1.00  0.00    +0.130 C 
BRANCH  22  23
ATOM     23  C   UNL     1      21.674  37.372  40.273  1.00  0.00    +0.064 C 
ATOM     24  O   UNL     1      21.501  36.486  41.188  1.00  0.00    -0.548 OA
ATOM     25  O   UNL     1      22.390  37.143  39.236  1.00  0.00    -0.548 OA
ENDBRANCH  22  23
BRANCH  22  26
ATOM     26  N   UNL     1      19.804  38.696  41.262  1.00  0.00    -0.342 N 
ATOM     27  C   UNL     1      18.570  38.235  40.807  1.00  0.00    +0.280 C 
ATOM     28  O   UNL     1      18.333  37.920  39.637  1.00  0.00    -0.267 OA
ATOM     29  H   UNL     1      19.888  38.990  42.246  1.00  0.00    +0.164 HD
BRANCH  27  30
ATOM     30  C   UNL     1      17.388  38.151  41.788  1.00  0.00    +0.182 A 
ATOM     31  S   UNL     1      17.397  37.363  43.426  1.00  0.00    -0.109 S 
ATOM     32  N   UNL     1      16.181  38.699  41.578  1.00  0.00    -0.231 NA
ATOM     33  C   UNL     1      15.689  37.799  43.751  1.00  0.00    +0.055 A 
ATOM     34  C   UNL     1      15.235  38.511  42.630  1.00  0.00    +0.082 A 
ATOM     35  C   UNL     1      14.830  37.561  44.841  1.00  0.00    +0.021 A 
ATOM     36  C   UNL     1      13.894  38.995  42.605  1.00  0.00    +0.030 A 
ATOM     37  C   UNL     1      13.501  38.041  44.811  1.00  0.00    +0.002 A 
ATOM     38  C   UNL     1      13.029  38.763  43.687  1.00  0.00    +0.002 A 
ENDBRANCH  27  30
ENDBRANCH  22  26
ENDBRANCH  21  22
ENDBRANCH  20  21
ENDBRANCH   2  20
TORSDOF 11
ENDMDL
