MODEL 3
REMARK VINA RESULT:    -8.479      0.527      0.750
REMARK INTER + INTRA:         -15.199
REMARK INTER:                 -14.185
REMARK INTRA:                  -1.014
REMARK UNBOUND:                -1.267
REMARK SMILES O=C(CCCCc1ccc2c(n1)NCCC2)NCC[C@H](NC(=O)c1nc2ccccc2s1)C(=O)[O-]
REMARK SMILES IDX 2 1 17 2 1 3 3 5 4 6 5 7 6 8 7 9 8 10 12 11 9 12 11 13 10 14
REMARK SMILES IDX 13 15 16 16 14 17 15 18 18 20 19 21 20 22 33 23 34 24 35 25
REMARK SMILES IDX 21 26 22 27 23 28 24 30 32 31 25 32 31 33 26 34 30 35 27 36
REMARK SMILES IDX 29 37 28 38
REMARK H PARENT 17 4 13 19 21 29
ROOT
ATOM      1  C   UNL     1      18.390  41.400  40.544  1.00  0.00    +0.219 C 
ATOM      2  N   UNL     1      19.089  40.714  39.546  1.00  0.00    -0.356 N 
ATOM      3  O   UNL     1      17.835  40.738  41.439  1.00  0.00    -0.275 OA
ATOM      4  H   UNL     1      19.560  41.243  38.798  1.00  0.00    +0.163 HD
ENDROOT
BRANCH   1   5
ATOM      5  C   UNL     1      18.320  42.890  40.577  1.00  0.00    +0.100 C 
BRANCH   5   6
ATOM      6  C   UNL     1      16.864  43.396  40.580  1.00  0.00    +0.010 C 
BRANCH   6   7
ATOM      7  C   UNL     1      16.600  44.692  41.334  1.00  0.00    +0.007 C 
BRANCH   7   8
ATOM      8  C   UNL     1      16.075  44.428  42.760  1.00  0.00    +0.056 C 
BRANCH   8   9
ATOM      9  C   UNL     1      15.138  43.200  42.875  1.00  0.00    +0.043 A 
ATOM     10  C   UNL     1      13.794  43.343  42.477  1.00  0.00    +0.024 A 
ATOM     11  N   UNL     1      15.593  42.015  43.326  1.00  0.00    -0.236 NA
ATOM     12  C   UNL     1      12.920  42.237  42.568  1.00  0.00    +0.009 A 
ATOM     13  C   UNL     1      14.754  40.930  43.424  1.00  0.00    +0.129 A 
ATOM     14  C   UNL     1      13.387  40.987  43.050  1.00  0.00    -0.005 A 
ATOM     15  N   UNL     1      15.336  39.694  43.923  1.00  0.00    -0.370 N 
ATOM     16  C   UNL     1      12.475  39.801  43.150  1.00  0.00    +0.041 C 
ATOM     17  C   UNL     1      14.411  38.746  44.549  1.00  0.00    +0.115 C 
ATOM     18  C   UNL     1      13.074  38.509  43.800  1.00  0.00    +0.026 C 
ATOM     19  H   UNL     1      16.344  39.495  43.840  1.00  0.00    +0.162 HD
ENDBRANCH   8   9
ENDBRANCH   7   8
ENDBRANCH   6   7
ENDBRANCH   5   6
ENDBRANCH   1   5
BRANCH   2  20
ATOM     20  C   UNL     1      19.157  39.290  39.550  1.00  0.00    +0.118 C 
BRANCH  20  21
ATOM     21  C   UNL     1      20.573  38.801  39.817  1.00  0.00    +0.052 C 
BRANCH  21  22
ATOM     22  C   UNL     1      20.702  38.352  41.269  1.00  0.00    +0.130 C 
BRANCH  22  23
ATOM     23  C   UNL     1      20.027  36.945  41.420  1.00  0.00    +0.064 C 
ATOM     24  O   UNL     1      18.845  36.845  41.914  1.00  0.00    -0.548 OA
ATOM     25  O   UNL     1      20.686  35.918  41.028  1.00  0.00    -0.548 OA
ENDBRANCH  22  23
BRANCH  22  26
ATOM     26  N   UNL     1      22.090  38.309  41.756  1.00  0.00    -0.342 N 
ATOM     27  C   UNL     1      22.895  39.443  41.843  1.00  0.00    +0.280 C 
ATOM     28  O   UNL     1      22.556  40.568  41.463  1.00  0.00    -0.267 OA
ATOM     29  H   UNL     1      22.482  37.402  42.045  1.00  0.00    +0.164 HD
BRANCH  27  30
ATOM     30  C   UNL     1      24.325  39.312  42.395  1.00  0.00    +0.182 A 
ATOM     31  S   UNL     1      24.817  39.362  44.144  1.00  0.00    -0.109 S 
ATOM     32  N   UNL     1      25.416  39.094  41.644  1.00  0.00    -0.231 NA
ATOM     33  C   UNL     1      26.550  39.109  43.762  1.00  0.00    +0.055 A 
ATOM     34  C   UNL     1      26.642  38.990  42.366  1.00  0.00    +0.082 A 
ATOM     35  C   UNL     1      27.705  39.021  44.563  1.00  0.00    +0.021 A 
ATOM     36  C   UNL     1      27.917  38.777  41.765  1.00  0.00    +0.030 A 
ATOM     37  C   UNL     1      28.967  38.811  43.962  1.00  0.00    +0.002 A 
ATOM     38  C   UNL     1      29.075  38.688  42.555  1.00  0.00    +0.002 A 
ENDBRANCH  27  30
ENDBRANCH  22  26
ENDBRANCH  21  22
ENDBRANCH  20  21
ENDBRANCH   2  20
TORSDOF 11
ENDMDL
