MODEL 5
REMARK VINA RESULT:    -8.372      1.557      2.057
REMARK INTER + INTRA:         -15.024
REMARK INTER:                 -13.900
REMARK INTRA:                  -1.124
REMARK UNBOUND:                -1.267
REMARK SMILES O=C(CCCCc1ccc2c(n1)NCCC2)NCC[C@H](NC(=O)c1nc2ccccc2s1)C(=O)[O-]
REMARK SMILES IDX 2 1 17 2 1 3 3 5 4 6 5 7 6 8 7 9 8 10 12 11 9 12 11 13 10 14
REMARK SMILES IDX 13 15 16 16 14 17 15 18 18 20 19 21 20 22 33 23 34 24 35 25
REMARK SMILES IDX 21 26 22 27 23 28 24 30 32 31 25 32 31 33 26 34 30 35 27 36
REMARK SMILES IDX 29 37 28 38
REMARK H PARENT 17 4 13 19 21 29
ROOT
ATOM      1  C   UNL     1      18.316  41.053  41.174  1.00  0.00    +0.219 C 
ATOM      2  N   UNL     1      19.184  40.763  40.115  1.00  0.00    -0.356 N 
ATOM      3  O   UNL     1      17.522  40.170  41.544  1.00  0.00    -0.275 OA
ATOM      4  H   UNL     1      19.854  41.478  39.796  1.00  0.00    +0.163 HD
ENDROOT
BRANCH   1   5
ATOM      5  C   UNL     1      18.340  42.368  41.877  1.00  0.00    +0.100 C 
BRANCH   5   6
ATOM      6  C   UNL     1      17.945  43.527  40.941  1.00  0.00    +0.010 C 
BRANCH   6   7
ATOM      7  C   UNL     1      16.853  44.460  41.445  1.00  0.00    +0.007 C 
BRANCH   7   8
ATOM      8  C   UNL     1      15.465  44.062  40.902  1.00  0.00    +0.056 C 
BRANCH   8   9
ATOM      9  C   UNL     1      14.537  43.401  41.951  1.00  0.00    +0.043 A 
ATOM     10  C   UNL     1      15.094  42.455  42.835  1.00  0.00    +0.024 A 
ATOM     11  N   UNL     1      13.234  43.728  42.036  1.00  0.00    -0.236 NA
ATOM     12  C   UNL     1      14.272  41.840  43.805  1.00  0.00    +0.009 A 
ATOM     13  C   UNL     1      12.419  43.136  42.973  1.00  0.00    +0.129 A 
ATOM     14  C   UNL     1      12.895  42.172  43.897  1.00  0.00    -0.005 A 
ATOM     15  N   UNL     1      11.025  43.554  42.987  1.00  0.00    -0.370 N 
ATOM     16  C   UNL     1      12.007  41.532  44.923  1.00  0.00    +0.041 C 
ATOM     17  C   UNL     1      10.065  42.594  43.537  1.00  0.00    +0.115 C 
ATOM     18  C   UNL     1      10.486  41.895  44.855  1.00  0.00    +0.026 C 
ATOM     19  H   UNL     1      10.731  44.475  42.631  1.00  0.00    +0.162 HD
ENDBRANCH   8   9
ENDBRANCH   7   8
ENDBRANCH   6   7
ENDBRANCH   5   6
ENDBRANCH   1   5
BRANCH   2  20
ATOM     20  C   UNL     1      19.154  39.491  39.474  1.00  0.00    +0.118 C 
BRANCH  20  21
ATOM     21  C   UNL     1      20.475  38.753  39.637  1.00  0.00    +0.052 C 
BRANCH  21  22
ATOM     22  C   UNL     1      20.674  38.364  41.099  1.00  0.00    +0.130 C 
BRANCH  22  23
ATOM     23  C   UNL     1      20.005  36.967  41.341  1.00  0.00    +0.064 C 
ATOM     24  O   UNL     1      18.766  36.892  41.674  1.00  0.00    -0.548 OA
ATOM     25  O   UNL     1      20.728  35.920  41.186  1.00  0.00    -0.548 OA
ENDBRANCH  22  23
BRANCH  22  26
ATOM     26  N   UNL     1      22.083  38.336  41.518  1.00  0.00    -0.342 N 
ATOM     27  C   UNL     1      22.725  39.437  42.085  1.00  0.00    +0.280 C 
ATOM     28  O   UNL     1      22.205  40.547  42.228  1.00  0.00    -0.267 OA
ATOM     29  H   UNL     1      22.619  37.466  41.388  1.00  0.00    +0.164 HD
BRANCH  27  30
ATOM     30  C   UNL     1      24.193  39.308  42.526  1.00  0.00    +0.182 A 
ATOM     31  S   UNL     1      24.828  39.444  44.224  1.00  0.00    -0.109 S 
ATOM     32  N   UNL     1      25.215  39.029  41.702  1.00  0.00    -0.231 NA
ATOM     33  C   UNL     1      26.520  39.138  43.717  1.00  0.00    +0.055 A 
ATOM     34  C   UNL     1      26.495  38.943  42.327  1.00  0.00    +0.082 A 
ATOM     35  C   UNL     1      27.735  39.072  44.425  1.00  0.00    +0.021 A 
ATOM     36  C   UNL     1      27.713  38.674  41.637  1.00  0.00    +0.030 A 
ATOM     37  C   UNL     1      28.941  38.807  43.737  1.00  0.00    +0.002 A 
ATOM     38  C   UNL     1      28.931  38.606  42.334  1.00  0.00    +0.002 A 
ENDBRANCH  27  30
ENDBRANCH  22  26
ENDBRANCH  21  22
ENDBRANCH  20  21
ENDBRANCH   2  20
TORSDOF 11
ENDMDL
