MODEL 7
REMARK VINA RESULT:    -8.251      3.380     12.345
REMARK INTER + INTRA:         -14.824
REMARK INTER:                 -13.974
REMARK INTRA:                  -0.849
REMARK UNBOUND:                -1.267
REMARK SMILES O=C(CCCCc1ccc2c(n1)NCCC2)NCC[C@H](NC(=O)c1nc2ccccc2s1)C(=O)[O-]
REMARK SMILES IDX 2 1 17 2 1 3 3 5 4 6 5 7 6 8 7 9 8 10 12 11 9 12 11 13 10 14
REMARK SMILES IDX 13 15 16 16 14 17 15 18 18 20 19 21 20 22 33 23 34 24 35 25
REMARK SMILES IDX 21 26 22 27 23 28 24 30 32 31 25 32 31 33 26 34 30 35 27 36
REMARK SMILES IDX 29 37 28 38
REMARK H PARENT 17 4 13 19 21 29
ROOT
ATOM      1  C   UNL     1      25.330  39.525  41.942  1.00  0.00    +0.219 C 
ATOM      2  N   UNL     1      24.386  38.652  41.389  1.00  0.00    -0.356 N 
ATOM      3  O   UNL     1      25.187  40.746  41.754  1.00  0.00    -0.275 OA
ATOM      4  H   UNL     1      24.483  37.637  41.536  1.00  0.00    +0.163 HD
ENDROOT
BRANCH   1   5
ATOM      5  C   UNL     1      26.473  39.032  42.763  1.00  0.00    +0.100 C 
BRANCH   5   6
ATOM      6  C   UNL     1      27.721  38.753  41.903  1.00  0.00    +0.010 C 
BRANCH   6   7
ATOM      7  C   UNL     1      29.047  38.655  42.645  1.00  0.00    +0.007 C 
BRANCH   7   8
ATOM      8  C   UNL     1      28.878  38.921  44.156  1.00  0.00    +0.056 C 
BRANCH   8   9
ATOM      9  C   UNL     1      30.162  38.686  44.990  1.00  0.00    +0.043 A 
ATOM     10  C   UNL     1      30.765  39.794  45.617  1.00  0.00    +0.024 A 
ATOM     11  N   UNL     1      30.685  37.453  45.133  1.00  0.00    -0.236 NA
ATOM     12  C   UNL     1      31.934  39.606  46.387  1.00  0.00    +0.009 A 
ATOM     13  C   UNL     1      31.826  37.254  45.876  1.00  0.00    +0.129 A 
ATOM     14  C   UNL     1      32.499  38.313  46.537  1.00  0.00    -0.005 A 
ATOM     15  N   UNL     1      32.316  35.888  45.972  1.00  0.00    -0.370 N 
ATOM     16  C   UNL     1      33.737  38.094  47.354  1.00  0.00    +0.041 C 
ATOM     17  C   UNL     1      33.746  35.729  46.246  1.00  0.00    +0.115 C 
ATOM     18  C   UNL     1      34.328  36.645  47.354  1.00  0.00    +0.026 C 
ATOM     19  H   UNL     1      31.692  35.077  45.854  1.00  0.00    +0.162 HD
ENDBRANCH   8   9
ENDBRANCH   7   8
ENDBRANCH   6   7
ENDBRANCH   5   6
ENDBRANCH   1   5
BRANCH   2  20
ATOM     20  C   UNL     1      23.291  39.151  40.624  1.00  0.00    +0.118 C 
BRANCH  20  21
ATOM     21  C   UNL     1      22.594  38.037  39.858  1.00  0.00    +0.052 C 
BRANCH  21  22
ATOM     22  C   UNL     1      21.146  37.916  40.321  1.00  0.00    +0.130 C 
BRANCH  22  23
ATOM     23  C   UNL     1      21.075  36.858  41.476  1.00  0.00    +0.064 C 
ATOM     24  O   UNL     1      21.672  37.078  42.592  1.00  0.00    -0.548 OA
ATOM     25  O   UNL     1      20.402  35.787  41.268  1.00  0.00    -0.548 OA
ENDBRANCH  22  23
BRANCH  22  26
ATOM     26  N   UNL     1      20.555  39.191  40.759  1.00  0.00    -0.342 N 
ATOM     27  C   UNL     1      19.836  40.023  39.903  1.00  0.00    +0.280 C 
ATOM     28  O   UNL     1      19.682  39.814  38.696  1.00  0.00    -0.267 OA
ATOM     29  H   UNL     1      20.678  39.480  41.740  1.00  0.00    +0.164 HD
BRANCH  27  30
ATOM     30  C   UNL     1      19.224  41.323  40.453  1.00  0.00    +0.182 A 
ATOM     31  S   UNL     1      20.118  42.675  41.277  1.00  0.00    -0.109 S 
ATOM     32  N   UNL     1      17.928  41.657  40.356  1.00  0.00    -0.231 NA
ATOM     33  C   UNL     1      18.632  43.654  41.491  1.00  0.00    +0.055 A 
ATOM     34  C   UNL     1      17.580  42.919  40.924  1.00  0.00    +0.082 A 
ATOM     35  C   UNL     1      18.390  44.911  42.077  1.00  0.00    +0.021 A 
ATOM     36  C   UNL     1      16.260  43.457  40.945  1.00  0.00    +0.030 A 
ATOM     37  C   UNL     1      17.080  45.441  42.097  1.00  0.00    +0.002 A 
ATOM     38  C   UNL     1      16.007  44.711  41.528  1.00  0.00    +0.002 A 
ENDBRANCH  27  30
ENDBRANCH  22  26
ENDBRANCH  21  22
ENDBRANCH  20  21
ENDBRANCH   2  20
TORSDOF 11
ENDMDL
