MODEL 6
REMARK VINA RESULT:    -8.299      3.758      7.198
REMARK INTER + INTRA:         -14.904
REMARK INTER:                 -12.196
REMARK INTRA:                  -2.708
REMARK UNBOUND:                -1.267
REMARK SMILES O=C(CCCCc1ccc2c(n1)NCCC2)NCC[C@H](NC(=O)c1nc2ccccc2s1)C(=O)[O-]
REMARK SMILES IDX 2 1 17 2 1 3 3 5 4 6 5 7 6 8 7 9 8 10 12 11 9 12 11 13 10 14
REMARK SMILES IDX 13 15 16 16 14 17 15 18 18 20 19 21 20 22 33 23 34 24 35 25
REMARK SMILES IDX 21 26 22 27 23 28 24 30 32 31 25 32 31 33 26 34 30 35 27 36
REMARK SMILES IDX 29 37 28 38
REMARK H PARENT 17 4 13 19 21 29
ROOT
ATOM      1  C   UNL     1      18.930  42.052  40.640  1.00  0.00    +0.219 C 
ATOM      2  N   UNL     1      20.303  41.782  40.615  1.00  0.00    -0.356 N 
ATOM      3  O   UNL     1      18.151  41.196  40.185  1.00  0.00    -0.275 OA
ATOM      4  H   UNL     1      20.965  42.476  40.991  1.00  0.00    +0.163 HD
ENDROOT
BRANCH   1   5
ATOM      5  C   UNL     1      18.385  43.314  41.219  1.00  0.00    +0.100 C 
BRANCH   5   6
ATOM      6  C   UNL     1      17.045  43.712  40.569  1.00  0.00    +0.010 C 
BRANCH   6   7
ATOM      7  C   UNL     1      15.960  44.218  41.510  1.00  0.00    +0.007 C 
BRANCH   7   8
ATOM      8  C   UNL     1      14.554  43.780  41.051  1.00  0.00    +0.056 C 
BRANCH   8   9
ATOM      9  C   UNL     1      13.594  43.411  42.209  1.00  0.00    +0.043 A 
ATOM     10  C   UNL     1      14.142  42.856  43.382  1.00  0.00    +0.024 A 
ATOM     11  N   UNL     1      12.268  43.629  42.113  1.00  0.00    -0.236 NA
ATOM     12  C   UNL     1      13.289  42.514  44.455  1.00  0.00    +0.009 A 
ATOM     13  C   UNL     1      11.423  43.298  43.147  1.00  0.00    +0.129 A 
ATOM     14  C   UNL     1      11.890  42.731  44.360  1.00  0.00    -0.005 A 
ATOM     15  N   UNL     1      10.008  43.570  42.950  1.00  0.00    -0.370 N 
ATOM     16  C   UNL     1      10.969  42.379  45.491  1.00  0.00    +0.041 C 
ATOM     17  C   UNL     1       9.075  42.756  43.732  1.00  0.00    +0.115 C 
ATOM     18  C   UNL     1       9.437  42.560  45.228  1.00  0.00    +0.026 C 
ATOM     19  H   UNL     1       9.680  44.296  42.297  1.00  0.00    +0.162 HD
ENDBRANCH   8   9
ENDBRANCH   7   8
ENDBRANCH   6   7
ENDBRANCH   5   6
ENDBRANCH   1   5
BRANCH   2  20
ATOM     20  C   UNL     1      20.796  40.559  40.074  1.00  0.00    +0.118 C 
BRANCH  20  21
ATOM     21  C   UNL     1      21.116  39.554  41.171  1.00  0.00    +0.052 C 
BRANCH  21  22
ATOM     22  C   UNL     1      20.139  38.384  41.104  1.00  0.00    +0.130 C 
BRANCH  22  23
ATOM     23  C   UNL     1      20.888  37.080  41.546  1.00  0.00    +0.064 C 
ATOM     24  O   UNL     1      20.468  35.930  41.157  1.00  0.00    -0.548 OA
ATOM     25  O   UNL     1      21.924  37.206  42.290  1.00  0.00    -0.548 OA
ENDBRANCH  22  23
BRANCH  22  26
ATOM     26  N   UNL     1      18.926  38.577  41.914  1.00  0.00    -0.342 N 
ATOM     27  C   UNL     1      17.681  38.073  41.541  1.00  0.00    +0.280 C 
ATOM     28  O   UNL     1      17.459  37.484  40.480  1.00  0.00    -0.267 OA
ATOM     29  H   UNL     1      19.000  39.107  42.794  1.00  0.00    +0.164 HD
BRANCH  27  30
ATOM     30  C   UNL     1      16.471  38.294  42.465  1.00  0.00    +0.182 A 
ATOM     31  S   UNL     1      16.502  38.402  44.280  1.00  0.00    -0.109 S 
ATOM     32  N   UNL     1      15.212  38.484  42.041  1.00  0.00    -0.231 NA
ATOM     33  C   UNL     1      14.734  38.677  44.388  1.00  0.00    +0.055 A 
ATOM     34  C   UNL     1      14.246  38.684  43.072  1.00  0.00    +0.082 A 
ATOM     35  C   UNL     1      13.859  38.866  45.475  1.00  0.00    +0.021 A 
ATOM     36  C   UNL     1      12.854  38.887  42.845  1.00  0.00    +0.030 A 
ATOM     37  C   UNL     1      12.479  39.065  45.245  1.00  0.00    +0.002 A 
ATOM     38  C   UNL     1      11.972  39.077  43.922  1.00  0.00    +0.002 A 
ENDBRANCH  27  30
ENDBRANCH  22  26
ENDBRANCH  21  22
ENDBRANCH  20  21
ENDBRANCH   2  20
TORSDOF 11
ENDMDL
