MODEL 14
REMARK VINA RESULT:    -7.985      5.378      8.513
REMARK INTER + INTRA:         -14.387
REMARK INTER:                 -13.303
REMARK INTRA:                  -1.084
REMARK UNBOUND:                -1.267
REMARK SMILES O=C(CCCCc1ccc2c(n1)NCCC2)NCC[C@H](NC(=O)c1nc2ccccc2s1)C(=O)[O-]
REMARK SMILES IDX 2 1 17 2 1 3 3 5 4 6 5 7 6 8 7 9 8 10 12 11 9 12 11 13 10 14
REMARK SMILES IDX 13 15 16 16 14 17 15 18 18 20 19 21 20 22 33 23 34 24 35 25
REMARK SMILES IDX 21 26 22 27 23 28 24 30 32 31 25 32 31 33 26 34 30 35 27 36
REMARK SMILES IDX 29 37 28 38
REMARK H PARENT 17 4 13 19 21 29
ROOT
ATOM      1  C   UNL     1      22.735  42.310  40.190  1.00  0.00    +0.219 C 
ATOM      2  N   UNL     1      21.496  41.660  40.160  1.00  0.00    -0.356 N 
ATOM      3  O   UNL     1      23.766  41.614  40.212  1.00  0.00    -0.275 OA
ATOM      4  H   UNL     1      20.630  42.217  40.136  1.00  0.00    +0.163 HD
ENDROOT
BRANCH   1   5
ATOM      5  C   UNL     1      22.847  43.796  40.166  1.00  0.00    +0.100 C 
BRANCH   5   6
ATOM      6  C   UNL     1      23.085  44.377  41.574  1.00  0.00    +0.010 C 
BRANCH   6   7
ATOM      7  C   UNL     1      24.441  45.027  41.817  1.00  0.00    +0.007 C 
BRANCH   7   8
ATOM      8  C   UNL     1      24.374  46.561  41.676  1.00  0.00    +0.056 C 
BRANCH   8   9
ATOM      9  C   UNL     1      24.715  47.085  40.259  1.00  0.00    +0.043 A 
ATOM     10  C   UNL     1      23.840  48.014  39.661  1.00  0.00    +0.024 A 
ATOM     11  N   UNL     1      25.826  46.682  39.615  1.00  0.00    -0.236 NA
ATOM     12  C   UNL     1      24.130  48.511  38.371  1.00  0.00    +0.009 A 
ATOM     13  C   UNL     1      26.121  47.154  38.356  1.00  0.00    +0.129 A 
ATOM     14  C   UNL     1      25.295  48.086  37.679  1.00  0.00    -0.005 A 
ATOM     15  N   UNL     1      27.343  46.661  37.741  1.00  0.00    -0.370 N 
ATOM     16  C   UNL     1      25.620  48.606  36.311  1.00  0.00    +0.041 C 
ATOM     17  C   UNL     1      27.388  46.683  36.277  1.00  0.00    +0.115 C 
ATOM     18  C   UNL     1      26.869  47.981  35.604  1.00  0.00    +0.026 C 
ATOM     19  H   UNL     1      28.133  46.314  38.303  1.00  0.00    +0.162 HD
ENDBRANCH   8   9
ENDBRANCH   7   8
ENDBRANCH   6   7
ENDBRANCH   5   6
ENDBRANCH   1   5
BRANCH   2  20
ATOM     20  C   UNL     1      21.418  40.237  40.163  1.00  0.00    +0.118 C 
BRANCH  20  21
ATOM     21  C   UNL     1      20.358  39.740  41.136  1.00  0.00    +0.052 C 
BRANCH  21  22
ATOM     22  C   UNL     1      20.855  38.487  41.849  1.00  0.00    +0.130 C 
BRANCH  22  23
ATOM     23  C   UNL     1      20.426  37.231  41.015  1.00  0.00    +0.064 C 
ATOM     24  O   UNL     1      19.617  37.358  40.025  1.00  0.00    -0.548 OA
ATOM     25  O   UNL     1      20.915  36.094  41.348  1.00  0.00    -0.548 OA
ENDBRANCH  22  23
BRANCH  22  26
ATOM     26  N   UNL     1      22.308  38.474  42.083  1.00  0.00    -0.342 N 
ATOM     27  C   UNL     1      22.932  39.312  43.007  1.00  0.00    +0.280 C 
ATOM     28  O   UNL     1      22.350  40.180  43.662  1.00  0.00    -0.267 OA
ATOM     29  H   UNL     1      22.889  37.819  41.540  1.00  0.00    +0.164 HD
BRANCH  27  30
ATOM     30  C   UNL     1      24.453  39.208  43.210  1.00  0.00    +0.182 A 
ATOM     31  S   UNL     1      25.341  39.309  44.793  1.00  0.00    -0.109 S 
ATOM     32  N   UNL     1      25.340  38.981  42.229  1.00  0.00    -0.231 NA
ATOM     33  C   UNL     1      26.940  39.062  44.020  1.00  0.00    +0.055 A 
ATOM     34  C   UNL     1      26.703  38.909  42.646  1.00  0.00    +0.082 A 
ATOM     35  C   UNL     1      28.251  39.007  44.529  1.00  0.00    +0.021 A 
ATOM     36  C   UNL     1      27.805  38.692  41.767  1.00  0.00    +0.030 A 
ATOM     37  C   UNL     1      29.341  38.794  43.654  1.00  0.00    +0.002 A 
ATOM     38  C   UNL     1      29.117  38.635  42.264  1.00  0.00    +0.002 A 
ENDBRANCH  27  30
ENDBRANCH  22  26
ENDBRANCH  21  22
ENDBRANCH  20  21
ENDBRANCH   2  20
TORSDOF 11
ENDMDL
