MODEL 1
REMARK VINA RESULT:    -8.639      0.000      0.000
REMARK INTER + INTRA:         -15.462
REMARK INTER:                 -14.194
REMARK INTRA:                  -1.267
REMARK UNBOUND:                -1.267
REMARK SMILES O=C(CCCCc1ccc2c(n1)NCCC2)NCC[C@H](NC(=O)c1nc2ccccc2s1)C(=O)[O-]
REMARK SMILES IDX 2 1 17 2 1 3 3 5 4 6 5 7 6 8 7 9 8 10 12 11 9 12 11 13 10 14
REMARK SMILES IDX 13 15 16 16 14 17 15 18 18 20 19 21 20 22 33 23 34 24 35 25
REMARK SMILES IDX 21 26 22 27 23 28 24 30 32 31 25 32 31 33 26 34 30 35 27 36
REMARK SMILES IDX 29 37 28 38
REMARK H PARENT 17 4 13 19 21 29
ROOT
ATOM      1  C   UNL     1      18.602  40.923  40.641  1.00  0.00    +0.219 C 
ATOM      2  N   UNL     1      19.270  40.476  39.495  1.00  0.00    -0.356 N 
ATOM      3  O   UNL     1      18.037  40.080  41.361  1.00  0.00    -0.275 OA
ATOM      4  H   UNL     1      19.749  41.156  38.888  1.00  0.00    +0.163 HD
ENDROOT
BRANCH   1   5
ATOM      5  C   UNL     1      18.577  42.362  41.028  1.00  0.00    +0.100 C 
BRANCH   5   6
ATOM      6  C   UNL     1      17.564  43.165  40.188  1.00  0.00    +0.010 C 
BRANCH   6   7
ATOM      7  C   UNL     1      16.545  43.990  40.963  1.00  0.00    +0.007 C 
BRANCH   7   8
ATOM      8  C   UNL     1      16.457  43.549  42.439  1.00  0.00    +0.056 C 
BRANCH   8   9
ATOM      9  C   UNL     1      15.325  42.533  42.732  1.00  0.00    +0.043 A 
ATOM     10  C   UNL     1      13.996  43.003  42.769  1.00  0.00    +0.024 A 
ATOM     11  N   UNL     1      15.592  41.229  42.932  1.00  0.00    -0.236 NA
ATOM     12  C   UNL     1      12.945  42.097  43.030  1.00  0.00    +0.009 A 
ATOM     13  C   UNL     1      14.580  40.334  43.191  1.00  0.00    +0.129 A 
ATOM     14  C   UNL     1      13.217  40.721  43.250  1.00  0.00    -0.005 A 
ATOM     15  N   UNL     1      14.967  38.947  43.393  1.00  0.00    -0.370 N 
ATOM     16  C   UNL     1      12.113  39.744  43.525  1.00  0.00    +0.041 C 
ATOM     17  C   UNL     1      14.052  38.127  44.192  1.00  0.00    +0.115 C 
ATOM     18  C   UNL     1      12.544  38.278  43.861  1.00  0.00    +0.026 C 
ATOM     19  H   UNL     1      15.836  38.562  42.996  1.00  0.00    +0.162 HD
ENDBRANCH   8   9
ENDBRANCH   7   8
ENDBRANCH   6   7
ENDBRANCH   5   6
ENDBRANCH   1   5
BRANCH   2  20
ATOM     20  C   UNL     1      19.296  39.091  39.159  1.00  0.00    +0.118 C 
BRANCH  20  21
ATOM     21  C   UNL     1      20.656  38.473  39.449  1.00  0.00    +0.052 C 
BRANCH  21  22
ATOM     22  C   UNL     1      20.809  38.236  40.948  1.00  0.00    +0.130 C 
BRANCH  22  23
ATOM     23  C   UNL     1      20.111  36.881  41.315  1.00  0.00    +0.064 C 
ATOM     24  O   UNL     1      20.743  35.771  41.180  1.00  0.00    -0.548 OA
ATOM     25  O   UNL     1      18.909  36.926  41.756  1.00  0.00    -0.548 OA
ENDBRANCH  22  23
BRANCH  22  26
ATOM     26  N   UNL     1      22.207  38.232  41.408  1.00  0.00    -0.342 N 
ATOM     27  C   UNL     1      22.823  39.355  41.959  1.00  0.00    +0.280 C 
ATOM     28  O   UNL     1      22.291  40.464  42.054  1.00  0.00    -0.267 OA
ATOM     29  H   UNL     1      22.753  37.364  41.319  1.00  0.00    +0.164 HD
BRANCH  27  30
ATOM     30  C   UNL     1      24.279  39.253  42.445  1.00  0.00    +0.182 A 
ATOM     31  S   UNL     1      24.858  39.393  44.163  1.00  0.00    -0.109 S 
ATOM     32  N   UNL     1      25.332  38.996  41.653  1.00  0.00    -0.231 NA
ATOM     33  C   UNL     1      26.571  39.121  43.707  1.00  0.00    +0.055 A 
ATOM     34  C   UNL     1      26.593  38.931  42.317  1.00  0.00    +0.082 A 
ATOM     35  C   UNL     1      27.764  39.076  44.453  1.00  0.00    +0.021 A 
ATOM     36  C   UNL     1      27.836  38.688  41.664  1.00  0.00    +0.030 A 
ATOM     37  C   UNL     1      28.995  38.836  43.801  1.00  0.00    +0.002 A 
ATOM     38  C   UNL     1      29.033  38.640  42.398  1.00  0.00    +0.002 A 
ENDBRANCH  27  30
ENDBRANCH  22  26
ENDBRANCH  21  22
ENDBRANCH  20  21
ENDBRANCH   2  20
TORSDOF 11
ENDMDL
