MODEL 8
REMARK VINA RESULT:    -8.174      4.058      5.902
REMARK INTER + INTRA:         -14.698
REMARK INTER:                 -13.920
REMARK INTRA:                  -0.778
REMARK UNBOUND:                -1.267
REMARK SMILES O=C(CCCCc1ccc2c(n1)NCCC2)NCC[C@H](NC(=O)c1nc2ccccc2s1)C(=O)[O-]
REMARK SMILES IDX 2 1 17 2 1 3 3 5 4 6 5 7 6 8 7 9 8 10 12 11 9 12 11 13 10 14
REMARK SMILES IDX 13 15 16 16 14 17 15 18 18 20 19 21 20 22 33 23 34 24 35 25
REMARK SMILES IDX 21 26 22 27 23 28 24 30 32 31 25 32 31 33 26 34 30 35 27 36
REMARK SMILES IDX 29 37 28 38
REMARK H PARENT 17 4 13 19 21 29
ROOT
ATOM      1  C   UNL     1      17.763  42.367  41.000  1.00  0.00    +0.219 C 
ATOM      2  N   UNL     1      18.583  41.704  40.080  1.00  0.00    -0.356 N 
ATOM      3  O   UNL     1      17.298  41.717  41.953  1.00  0.00    -0.275 OA
ATOM      4  H   UNL     1      18.983  42.225  39.287  1.00  0.00    +0.163 HD
ENDROOT
BRANCH   1   5
ATOM      5  C   UNL     1      17.462  43.823  40.882  1.00  0.00    +0.100 C 
BRANCH   5   6
ATOM      6  C   UNL     1      17.684  44.565  42.215  1.00  0.00    +0.010 C 
BRANCH   6   7
ATOM      7  C   UNL     1      16.584  45.526  42.646  1.00  0.00    +0.007 C 
BRANCH   7   8
ATOM      8  C   UNL     1      17.047  46.448  43.793  1.00  0.00    +0.056 C 
BRANCH   8   9
ATOM      9  C   UNL     1      17.040  47.956  43.438  1.00  0.00    +0.043 A 
ATOM     10  C   UNL     1      18.146  48.739  43.825  1.00  0.00    +0.024 A 
ATOM     11  N   UNL     1      16.015  48.509  42.762  1.00  0.00    -0.236 NA
ATOM     12  C   UNL     1      18.166  50.116  43.510  1.00  0.00    +0.009 A 
ATOM     13  C   UNL     1      16.019  49.849  42.452  1.00  0.00    +0.129 A 
ATOM     14  C   UNL     1      17.088  50.711  42.805  1.00  0.00    -0.005 A 
ATOM     15  N   UNL     1      14.868  50.356  41.720  1.00  0.00    -0.370 N 
ATOM     16  C   UNL     1      17.094  52.170  42.459  1.00  0.00    +0.041 C 
ATOM     17  C   UNL     1      14.579  51.784  41.870  1.00  0.00    +0.115 C 
ATOM     18  C   UNL     1      15.802  52.734  41.781  1.00  0.00    +0.026 C 
ATOM     19  H   UNL     1      14.288  49.743  41.128  1.00  0.00    +0.162 HD
ENDBRANCH   8   9
ENDBRANCH   7   8
ENDBRANCH   6   7
ENDBRANCH   5   6
ENDBRANCH   1   5
BRANCH   2  20
ATOM     20  C   UNL     1      18.871  40.316  40.228  1.00  0.00    +0.118 C 
BRANCH  20  21
ATOM     21  C   UNL     1      20.368  40.050  40.175  1.00  0.00    +0.052 C 
BRANCH  21  22
ATOM     22  C   UNL     1      20.736  38.952  41.168  1.00  0.00    +0.130 C 
BRANCH  22  23
ATOM     23  C   UNL     1      20.264  37.574  40.588  1.00  0.00    +0.064 C 
ATOM     24  O   UNL     1      20.509  37.269  39.364  1.00  0.00    -0.548 OA
ATOM     25  O   UNL     1      19.643  36.773  41.373  1.00  0.00    -0.548 OA
ENDBRANCH  22  23
BRANCH  22  26
ATOM     26  N   UNL     1      22.169  38.904  41.497  1.00  0.00    -0.342 N 
ATOM     27  C   UNL     1      22.687  39.406  42.690  1.00  0.00    +0.280 C 
ATOM     28  O   UNL     1      22.019  39.992  43.546  1.00  0.00    -0.267 OA
ATOM     29  H   UNL     1      22.817  38.482  40.817  1.00  0.00    +0.164 HD
BRANCH  27  30
ATOM     30  C   UNL     1      24.195  39.285  42.966  1.00  0.00    +0.182 A 
ATOM     31  S   UNL     1      25.010  39.403  44.587  1.00  0.00    -0.109 S 
ATOM     32  N   UNL     1      25.124  39.027  42.033  1.00  0.00    -0.231 NA
ATOM     33  C   UNL     1      26.639  39.120  43.895  1.00  0.00    +0.055 A 
ATOM     34  C   UNL     1      26.465  38.943  42.513  1.00  0.00    +0.082 A 
ATOM     35  C   UNL     1      27.925  39.055  44.466  1.00  0.00    +0.021 A 
ATOM     36  C   UNL     1      27.602  38.694  41.691  1.00  0.00    +0.030 A 
ATOM     37  C   UNL     1      29.050  38.810  43.646  1.00  0.00    +0.002 A 
ATOM     38  C   UNL     1      28.890  38.628  42.250  1.00  0.00    +0.002 A 
ENDBRANCH  27  30
ENDBRANCH  22  26
ENDBRANCH  21  22
ENDBRANCH  20  21
ENDBRANCH   2  20
TORSDOF 11
ENDMDL
