MODEL 12
REMARK VINA RESULT:    -8.123      4.009      7.271
REMARK INTER + INTRA:         -14.613
REMARK INTER:                 -11.803
REMARK INTRA:                  -2.810
REMARK UNBOUND:                -1.267
REMARK SMILES O=C(CCCCc1ccc2c(n1)NCCC2)NCC[C@H](NC(=O)c1nc2ccccc2s1)C(=O)[O-]
REMARK SMILES IDX 2 1 17 2 1 3 3 5 4 6 5 7 6 8 7 9 8 10 12 11 9 12 11 13 10 14
REMARK SMILES IDX 13 15 16 16 14 17 15 18 18 20 19 21 20 22 33 23 34 24 35 25
REMARK SMILES IDX 21 26 22 27 23 28 24 30 32 31 25 32 31 33 26 34 30 35 27 36
REMARK SMILES IDX 29 37 28 38
REMARK H PARENT 17 4 13 19 21 29
ROOT
ATOM      1  C   UNL     1      18.357  41.958  40.910  1.00  0.00    +0.219 C 
ATOM      2  N   UNL     1      19.663  41.574  40.585  1.00  0.00    -0.356 N 
ATOM      3  O   UNL     1      17.759  41.325  41.798  1.00  0.00    -0.275 OA
ATOM      4  H   UNL     1      20.178  42.088  39.856  1.00  0.00    +0.163 HD
ENDROOT
BRANCH   1   5
ATOM      5  C   UNL     1      17.686  43.112  40.246  1.00  0.00    +0.100 C 
BRANCH   5   6
ATOM      6  C   UNL     1      17.430  44.271  41.230  1.00  0.00    +0.010 C 
BRANCH   6   7
ATOM      7  C   UNL     1      16.009  44.814  41.282  1.00  0.00    +0.007 C 
BRANCH   7   8
ATOM      8  C   UNL     1      14.962  43.683  41.210  1.00  0.00    +0.056 C 
BRANCH   8   9
ATOM      9  C   UNL     1      14.030  43.599  42.445  1.00  0.00    +0.043 A 
ATOM     10  C   UNL     1      14.619  43.512  43.722  1.00  0.00    +0.024 A 
ATOM     11  N   UNL     1      12.691  43.626  42.312  1.00  0.00    -0.236 NA
ATOM     12  C   UNL     1      13.793  43.438  44.865  1.00  0.00    +0.009 A 
ATOM     13  C   UNL     1      11.872  43.552  43.415  1.00  0.00    +0.129 A 
ATOM     14  C   UNL     1      12.379  43.458  44.736  1.00  0.00    -0.005 A 
ATOM     15  N   UNL     1      10.438  43.588  43.171  1.00  0.00    -0.370 N 
ATOM     16  C   UNL     1      11.486  43.384  45.938  1.00  0.00    +0.041 C 
ATOM     17  C   UNL     1       9.590  42.967  44.192  1.00  0.00    +0.115 C 
ATOM     18  C   UNL     1       9.948  43.301  45.663  1.00  0.00    +0.026 C 
ATOM     19  H   UNL     1      10.042  44.026  42.328  1.00  0.00    +0.162 HD
ENDBRANCH   8   9
ENDBRANCH   7   8
ENDBRANCH   6   7
ENDBRANCH   5   6
ENDBRANCH   1   5
BRANCH   2  20
ATOM     20  C   UNL     1      20.288  40.479  41.250  1.00  0.00    +0.118 C 
BRANCH  20  21
ATOM     21  C   UNL     1      20.526  39.314  40.300  1.00  0.00    +0.052 C 
BRANCH  21  22
ATOM     22  C   UNL     1      19.697  38.110  40.738  1.00  0.00    +0.130 C 
BRANCH  22  23
ATOM     23  C   UNL     1      20.627  37.117  41.517  1.00  0.00    +0.064 C 
ATOM     24  O   UNL     1      21.321  37.530  42.516  1.00  0.00    -0.548 OA
ATOM     25  O   UNL     1      20.659  35.896  41.129  1.00  0.00    -0.548 OA
ENDBRANCH  22  23
BRANCH  22  26
ATOM     26  N   UNL     1      18.526  38.463  41.557  1.00  0.00    -0.342 N 
ATOM     27  C   UNL     1      17.438  37.608  41.726  1.00  0.00    +0.280 C 
ATOM     28  O   UNL     1      17.316  36.517  41.163  1.00  0.00    -0.267 OA
ATOM     29  H   UNL     1      18.510  39.380  42.025  1.00  0.00    +0.164 HD
BRANCH  27  30
ATOM     30  C   UNL     1      16.270  38.045  42.628  1.00  0.00    +0.182 A 
ATOM     31  S   UNL     1      16.140  37.799  44.424  1.00  0.00    -0.109 S 
ATOM     32  N   UNL     1      15.190  38.719  42.203  1.00  0.00    -0.231 NA
ATOM     33  C   UNL     1      14.551  38.623  44.517  1.00  0.00    +0.055 A 
ATOM     34  C   UNL     1      14.234  39.036  43.214  1.00  0.00    +0.082 A 
ATOM     35  C   UNL     1      13.671  38.888  45.584  1.00  0.00    +0.021 A 
ATOM     36  C   UNL     1      13.011  39.730  42.979  1.00  0.00    +0.030 A 
ATOM     37  C   UNL     1      12.459  39.575  45.346  1.00  0.00    +0.002 A 
ATOM     38  C   UNL     1      12.126  40.000  44.036  1.00  0.00    +0.002 A 
ENDBRANCH  27  30
ENDBRANCH  22  26
ENDBRANCH  21  22
ENDBRANCH  20  21
ENDBRANCH   2  20
TORSDOF 11
ENDMDL
