MODEL 11
REMARK VINA RESULT:    -8.126      3.407      6.640
REMARK INTER + INTRA:         -14.619
REMARK INTER:                 -11.932
REMARK INTRA:                  -2.687
REMARK UNBOUND:                -1.267
REMARK SMILES O=C(CCCCc1ccc2c(n1)NCCC2)NCC[C@H](NC(=O)c1nc2ccccc2s1)C(=O)[O-]
REMARK SMILES IDX 2 1 17 2 1 3 3 5 4 6 5 7 6 8 7 9 8 10 12 11 9 12 11 13 10 14
REMARK SMILES IDX 13 15 16 16 14 17 15 18 18 20 19 21 20 22 33 23 34 24 35 25
REMARK SMILES IDX 21 26 22 27 23 28 24 30 32 31 25 32 31 33 26 34 30 35 27 36
REMARK SMILES IDX 29 37 28 38
REMARK H PARENT 17 4 13 19 21 29
ROOT
ATOM      1  C   UNL     1      19.984  42.216  41.877  1.00  0.00    +0.219 C 
ATOM      2  N   UNL     1      21.288  41.790  41.602  1.00  0.00    -0.356 N 
ATOM      3  O   UNL     1      19.214  41.427  42.453  1.00  0.00    -0.275 OA
ATOM      4  H   UNL     1      21.943  42.430  41.130  1.00  0.00    +0.163 HD
ENDROOT
BRANCH   1   5
ATOM      5  C   UNL     1      19.511  43.586  41.527  1.00  0.00    +0.100 C 
BRANCH   5   6
ATOM      6  C   UNL     1      18.149  43.556  40.805  1.00  0.00    +0.010 C 
BRANCH   6   7
ATOM      7  C   UNL     1      17.058  44.449  41.381  1.00  0.00    +0.007 C 
BRANCH   7   8
ATOM      8  C   UNL     1      15.660  44.051  40.864  1.00  0.00    +0.056 C 
BRANCH   8   9
ATOM      9  C   UNL     1      14.714  43.492  41.956  1.00  0.00    +0.043 A 
ATOM     10  C   UNL     1      15.261  42.663  42.955  1.00  0.00    +0.024 A 
ATOM     11  N   UNL     1      13.403  43.800  41.967  1.00  0.00    -0.236 NA
ATOM     12  C   UNL     1      14.421  42.143  43.964  1.00  0.00    +0.009 A 
ATOM     13  C   UNL     1      12.571  43.299  42.942  1.00  0.00    +0.129 A 
ATOM     14  C   UNL     1      13.036  42.455  43.981  1.00  0.00    -0.005 A 
ATOM     15  N   UNL     1      11.171  43.687  42.871  1.00  0.00    -0.370 N 
ATOM     16  C   UNL     1      12.130  41.915  45.048  1.00  0.00    +0.041 C 
ATOM     17  C   UNL     1      10.211  42.774  43.498  1.00  0.00    +0.115 C 
ATOM     18  C   UNL     1      10.605  42.236  44.898  1.00  0.00    +0.026 C 
ATOM     19  H   UNL     1      10.870  44.555  42.406  1.00  0.00    +0.162 HD
ENDBRANCH   8   9
ENDBRANCH   7   8
ENDBRANCH   6   7
ENDBRANCH   5   6
ENDBRANCH   1   5
BRANCH   2  20
ATOM     20  C   UNL     1      21.721  40.482  41.966  1.00  0.00    +0.118 C 
BRANCH  20  21
ATOM     21  C   UNL     1      22.181  39.690  40.751  1.00  0.00    +0.052 C 
BRANCH  21  22
ATOM     22  C   UNL     1      21.083  38.725  40.315  1.00  0.00    +0.130 C 
BRANCH  22  23
ATOM     23  C   UNL     1      21.695  37.286  40.201  1.00  0.00    +0.064 C 
ATOM     24  O   UNL     1      21.531  36.437  41.151  1.00  0.00    -0.548 OA
ATOM     25  O   UNL     1      22.347  36.994  39.137  1.00  0.00    -0.548 OA
ENDBRANCH  22  23
BRANCH  22  26
ATOM     26  N   UNL     1      19.913  38.714  41.208  1.00  0.00    -0.342 N 
ATOM     27  C   UNL     1      18.649  38.298  40.791  1.00  0.00    +0.280 C 
ATOM     28  O   UNL     1      18.371  37.967  39.636  1.00  0.00    -0.267 OA
ATOM     29  H   UNL     1      20.034  39.027  42.181  1.00  0.00    +0.164 HD
BRANCH  27  30
ATOM     30  C   UNL     1      17.489  38.288  41.802  1.00  0.00    +0.182 A 
ATOM     31  S   UNL     1      17.611  37.951  43.584  1.00  0.00    -0.109 S 
ATOM     32  N   UNL     1      16.213  38.576  41.502  1.00  0.00    -0.231 NA
ATOM     33  C   UNL     1      15.854  38.193  43.846  1.00  0.00    +0.055 A 
ATOM     34  C   UNL     1      15.302  38.520  42.598  1.00  0.00    +0.082 A 
ATOM     35  C   UNL     1      15.036  38.112  44.989  1.00  0.00    +0.021 A 
ATOM     36  C   UNL     1      13.903  38.773  42.497  1.00  0.00    +0.030 A 
ATOM     37  C   UNL     1      13.648  38.362  44.884  1.00  0.00    +0.002 A 
ATOM     38  C   UNL     1      13.077  38.695  43.631  1.00  0.00    +0.002 A 
ENDBRANCH  27  30
ENDBRANCH  22  26
ENDBRANCH  21  22
ENDBRANCH  20  21
ENDBRANCH   2  20
TORSDOF 11
ENDMDL
