MODEL 4
REMARK VINA RESULT:    -8.474      4.245      7.247
REMARK INTER + INTRA:         -15.190
REMARK INTER:                 -13.976
REMARK INTRA:                  -1.215
REMARK UNBOUND:                -1.267
REMARK SMILES O=C(CCCCc1ccc2c(n1)NCCC2)NCC[C@H](NC(=O)c1nc2ccccc2s1)C(=O)[O-]
REMARK SMILES IDX 2 1 17 2 1 3 3 5 4 6 5 7 6 8 7 9 8 10 12 11 9 12 11 13 10 14
REMARK SMILES IDX 13 15 16 16 14 17 15 18 18 20 19 21 20 22 33 23 34 24 35 25
REMARK SMILES IDX 21 26 22 27 23 28 24 30 32 31 25 32 31 33 26 34 30 35 27 36
REMARK SMILES IDX 29 37 28 38
REMARK H PARENT 17 4 13 19 21 29
ROOT
ATOM      1  C   UNL     1      19.073  41.795  40.729  1.00  0.00    +0.219 C 
ATOM      2  N   UNL     1      19.816  40.990  39.859  1.00  0.00    -0.356 N 
ATOM      3  O   UNL     1      18.057  41.309  41.259  1.00  0.00    -0.275 OA
ATOM      4  H   UNL     1      20.664  41.370  39.413  1.00  0.00    +0.163 HD
ENDROOT
BRANCH   1   5
ATOM      5  C   UNL     1      19.480  43.192  41.054  1.00  0.00    +0.100 C 
BRANCH   5   6
ATOM      6  C   UNL     1      20.988  43.418  40.829  1.00  0.00    +0.010 C 
BRANCH   6   7
ATOM      7  C   UNL     1      21.865  43.424  42.074  1.00  0.00    +0.007 C 
BRANCH   7   8
ATOM      8  C   UNL     1      23.358  43.580  41.721  1.00  0.00    +0.056 C 
BRANCH   8   9
ATOM      9  C   UNL     1      23.703  44.900  40.987  1.00  0.00    +0.043 A 
ATOM     10  C   UNL     1      23.780  46.086  41.744  1.00  0.00    +0.024 A 
ATOM     11  N   UNL     1      23.943  44.920  39.662  1.00  0.00    -0.236 NA
ATOM     12  C   UNL     1      24.097  47.302  41.100  1.00  0.00    +0.009 A 
ATOM     13  C   UNL     1      24.249  46.097  39.020  1.00  0.00    +0.129 A 
ATOM     14  C   UNL     1      24.343  47.336  39.703  1.00  0.00    -0.005 A 
ATOM     15  N   UNL     1      24.491  46.019  37.588  1.00  0.00    -0.370 N 
ATOM     16  C   UNL     1      24.685  48.618  39.003  1.00  0.00    +0.041 C 
ATOM     17  C   UNL     1      24.261  47.246  36.822  1.00  0.00    +0.115 C 
ATOM     18  C   UNL     1      24.824  48.549  37.446  1.00  0.00    +0.026 C 
ATOM     19  H   UNL     1      24.808  45.148  37.137  1.00  0.00    +0.162 HD
ENDBRANCH   8   9
ENDBRANCH   7   8
ENDBRANCH   6   7
ENDBRANCH   5   6
ENDBRANCH   1   5
BRANCH   2  20
ATOM     20  C   UNL     1      19.416  39.651  39.581  1.00  0.00    +0.118 C 
BRANCH  20  21
ATOM     21  C   UNL     1      20.540  38.664  39.861  1.00  0.00    +0.052 C 
BRANCH  21  22
ATOM     22  C   UNL     1      20.611  38.369  41.355  1.00  0.00    +0.130 C 
BRANCH  22  23
ATOM     23  C   UNL     1      19.894  37.002  41.631  1.00  0.00    +0.064 C 
ATOM     24  O   UNL     1      18.789  36.973  42.286  1.00  0.00    -0.548 OA
ATOM     25  O   UNL     1      20.439  35.935  41.175  1.00  0.00    -0.548 OA
ENDBRANCH  22  23
BRANCH  22  26
ATOM     26  N   UNL     1      21.981  38.344  41.891  1.00  0.00    -0.342 N 
ATOM     27  C   UNL     1      22.935  39.310  41.570  1.00  0.00    +0.280 C 
ATOM     28  O   UNL     1      22.752  40.228  40.767  1.00  0.00    -0.267 OA
ATOM     29  H   UNL     1      22.247  37.581  42.529  1.00  0.00    +0.164 HD
BRANCH  27  30
ATOM     30  C   UNL     1      24.335  39.225  42.202  1.00  0.00    +0.182 A 
ATOM     31  S   UNL     1      24.730  39.331  43.974  1.00  0.00    -0.109 S 
ATOM     32  N   UNL     1      25.469  39.011  41.517  1.00  0.00    -0.231 NA
ATOM     33  C   UNL     1      26.486  39.107  43.692  1.00  0.00    +0.055 A 
ATOM     34  C   UNL     1      26.656  38.955  42.307  1.00  0.00    +0.082 A 
ATOM     35  C   UNL     1      27.597  39.066  44.557  1.00  0.00    +0.021 A 
ATOM     36  C   UNL     1      27.966  38.755  41.782  1.00  0.00    +0.030 A 
ATOM     37  C   UNL     1      28.894  38.870  44.031  1.00  0.00    +0.002 A 
ATOM     38  C   UNL     1      29.081  38.712  42.635  1.00  0.00    +0.002 A 
ENDBRANCH  27  30
ENDBRANCH  22  26
ENDBRANCH  21  22
ENDBRANCH  20  21
ENDBRANCH   2  20
TORSDOF 11
ENDMDL
