MODEL 1
REMARK VINA RESULT:    -6.990      0.000      0.000
REMARK INTER + INTRA:         -13.647
REMARK INTER:                 -11.077
REMARK INTRA:                  -2.570
REMARK UNBOUND:                -2.570
REMARK SMILES O=C([O-])[C@H](c1cc(F)ccc1[C@@H]1CCCCO1)N1CC[C@@H](OCCCCc2ccc3c(n2)N=CCC3)C1
REMARK SMILES IDX 22 1 21 2 18 3 19 4 37 5 20 6 4 7 5 8 10 9 9 10 11 11 7 12
REMARK SMILES IDX 6 13 8 14 12 15 13 16 17 17 14 18 16 19 15 20 2 21 1 22 3 23
REMARK SMILES IDX 23 24 24 25 25 26 26 27 27 28 28 29 32 30 29 31 31 32 30 33
REMARK SMILES IDX 33 34 36 35 34 36 35 37
REMARK H PARENT
ROOT
ATOM      1  O   UNL     1       9.704 -44.348 -18.827  1.00  0.00    -0.377 OA
ENDROOT
BRANCH   1   2
ATOM      2  C   UNL     1       8.543 -43.994 -18.131  1.00  0.00    +0.133 C 
ATOM      3  N   UNL     1       7.175 -45.732 -17.088  1.00  0.00    -0.289 NA
ATOM      4  C   UNL     1       7.681 -44.849 -15.985  1.00  0.00    +0.088 C 
ATOM      5  C   UNL     1       7.451 -45.046 -18.394  1.00  0.00    +0.117 C 
ATOM      6  C   UNL     1       8.800 -43.993 -16.611  1.00  0.00    +0.049 C 
BRANCH   3   7
ATOM      7  C   UNL     1       5.704 -45.982 -16.952  1.00  0.00    +0.134 C 
BRANCH   7   8
ATOM      8  C   UNL     1       5.433 -47.478 -17.201  1.00  0.00    -0.016 A 
ATOM      9  C   UNL     1       4.061 -49.248 -18.130  1.00  0.00    +0.010 A 
ATOM     10  C   UNL     1       4.963 -50.206 -17.656  1.00  0.00    +0.039 A 
ATOM     11  C   UNL     1       4.296 -47.888 -17.907  1.00  0.00    -0.014 A 
ATOM     12  C   UNL     1       6.097 -49.797 -16.954  1.00  0.00    +0.123 A 
ATOM     13  C   UNL     1       6.334 -48.437 -16.727  1.00  0.00    +0.045 A 
ATOM     14  F   UNL     1       7.019 -50.775 -16.462  1.00  0.00    -0.207 F 
BRANCH  11  15
ATOM     15  C   UNL     1       3.282 -46.862 -18.439  1.00  0.00    +0.148 C 
ATOM     16  C   UNL     1       2.022 -47.629 -18.878  1.00  0.00    +0.037 C 
ATOM     17  O   UNL     1       3.854 -46.158 -19.503  1.00  0.00    -0.374 OA
ATOM     18  C   UNL     1       1.004 -46.706 -19.573  1.00  0.00    +0.005 C 
ATOM     19  C   UNL     1       2.992 -45.178 -20.016  1.00  0.00    +0.161 C 
ATOM     20  C   UNL     1       1.690 -45.773 -20.586  1.00  0.00    +0.029 C 
ENDBRANCH  11  15
ENDBRANCH   7   8
BRANCH   7  21
ATOM     21  C   UNL     1       5.272 -45.603 -15.525  1.00  0.00    +0.063 C 
ATOM     22  O   UNL     1       4.499 -44.690 -15.371  1.00  0.00    -0.548 OA
ATOM     23  O   UNL     1       5.706 -46.215 -14.575  1.00  0.00    -0.548 OA
ENDBRANCH   7  21
ENDBRANCH   3   7
ENDBRANCH   1   2
BRANCH   1  24
ATOM     24  C   UNL     1       9.464 -44.746 -20.145  1.00  0.00    +0.160 C 
BRANCH  24  25
ATOM     25  C   UNL     1      10.172 -46.096 -20.349  1.00  0.00    +0.029 C 
BRANCH  25  26
ATOM     26  C   UNL     1       9.358 -47.020 -21.268  1.00  0.00    +0.009 C 
BRANCH  26  27
ATOM     27  C   UNL     1       8.129 -47.627 -20.565  1.00  0.00    +0.056 C 
BRANCH  27  28
ATOM     28  C   UNL     1       6.878 -47.352 -21.412  1.00  0.00    +0.043 A 
ATOM     29  C   UNL     1       5.821 -48.271 -21.433  1.00  0.00    +0.024 A 
ATOM     30  N   UNL     1       6.807 -46.213 -22.120  1.00  0.00    -0.233 NA
ATOM     31  C   UNL     1       4.685 -47.990 -22.206  1.00  0.00    +0.009 A 
ATOM     32  C   UNL     1       5.720 -45.908 -22.873  1.00  0.00    +0.154 A 
ATOM     33  C   UNL     1       4.642 -46.796 -22.940  1.00  0.00    -0.003 A 
ATOM     34  N   UNL     1       5.752 -44.608 -23.625  1.00  0.00    -0.241 NA
ATOM     35  C   UNL     1       3.423 -46.425 -23.800  1.00  0.00    +0.045 C 
ATOM     36  C   UNL     1       4.434 -44.087 -24.136  1.00  0.00    +0.086 C 
ATOM     37  C   UNL     1       3.184 -44.906 -23.762  1.00  0.00    +0.053 C 
ENDBRANCH  27  28
ENDBRANCH  26  27
ENDBRANCH  25  26
ENDBRANCH  24  25
ENDBRANCH   1  24
TORSDOF 10
ENDMDL
MODEL 2
REMARK VINA RESULT:    -6.948      2.824      5.307
REMARK INTER + INTRA:         -13.581
REMARK INTER:                 -11.480
REMARK INTRA:                  -2.101
REMARK UNBOUND:                -2.570
REMARK SMILES O=C([O-])[C@H](c1cc(F)ccc1[C@@H]1CCCCO1)N1CC[C@@H](OCCCCc2ccc3c(n2)N=CCC3)C1
REMARK SMILES IDX 22 1 21 2 18 3 19 4 37 5 20 6 4 7 5 8 10 9 9 10 11 11 7 12
REMARK SMILES IDX 6 13 8 14 12 15 13 16 17 17 14 18 16 19 15 20 2 21 1 22 3 23
REMARK SMILES IDX 23 24 24 25 25 26 26 27 27 28 28 29 32 30 29 31 31 32 30 33
REMARK SMILES IDX 33 34 36 35 34 36 35 37
REMARK H PARENT
ROOT
ATOM      1  O   UNL     1       7.040 -45.393 -14.959  1.00  0.00    -0.377 OA
ENDROOT
BRANCH   1   2
ATOM      2  C   UNL     1       6.759 -46.742 -15.202  1.00  0.00    +0.133 C 
ATOM      3  N   UNL     1       6.003 -47.444 -17.419  1.00  0.00    -0.289 NA
ATOM      4  C   UNL     1       7.314 -48.129 -17.163  1.00  0.00    +0.088 C 
ATOM      5  C   UNL     1       5.532 -46.847 -16.125  1.00  0.00    +0.117 C 
ATOM      6  C   UNL     1       7.929 -47.416 -15.944  1.00  0.00    +0.049 C 
BRANCH   3   7
ATOM      7  C   UNL     1       4.977 -48.407 -17.932  1.00  0.00    +0.134 C 
BRANCH   7   8
ATOM      8  C   UNL     1       3.856 -47.612 -18.627  1.00  0.00    -0.016 A 
ATOM      9  C   UNL     1       1.518 -47.320 -19.201  1.00  0.00    +0.010 A 
ATOM     10  C   UNL     1       1.827 -46.142 -19.889  1.00  0.00    +0.039 A 
ATOM     11  C   UNL     1       2.529 -48.052 -18.568  1.00  0.00    -0.014 A 
ATOM     12  C   UNL     1       3.150 -45.703 -19.945  1.00  0.00    +0.123 A 
ATOM     13  C   UNL     1       4.163 -46.434 -19.316  1.00  0.00    +0.045 A 
ATOM     14  F   UNL     1       3.470 -44.501 -20.654  1.00  0.00    -0.207 F 
BRANCH  11  15
ATOM     15  C   UNL     1       2.155 -49.344 -17.824  1.00  0.00    +0.148 C 
ATOM     16  C   UNL     1       2.235 -50.507 -18.830  1.00  0.00    +0.037 C 
ATOM     17  O   UNL     1       0.870 -49.212 -17.290  1.00  0.00    -0.374 OA
ATOM     18  C   UNL     1       1.726 -51.826 -18.220  1.00  0.00    +0.005 C 
ATOM     19  C   UNL     1       0.477 -50.347 -16.565  1.00  0.00    +0.161 C 
ATOM     20  C   UNL     1       0.418 -51.616 -17.437  1.00  0.00    +0.029 C 
ENDBRANCH  11  15
ENDBRANCH   7   8
BRANCH   7  21
ATOM     21  C   UNL     1       5.652 -49.351 -18.942  1.00  0.00    +0.063 C 
ATOM     22  O   UNL     1       6.041 -48.903 -19.992  1.00  0.00    -0.548 OA
ATOM     23  O   UNL     1       5.788 -50.526 -18.680  1.00  0.00    -0.548 OA
ENDBRANCH   7  21
ENDBRANCH   3   7
ENDBRANCH   1   2
BRANCH   1  24
ATOM     24  C   UNL     1       6.402 -44.522 -15.846  1.00  0.00    +0.160 C 
BRANCH  24  25
ATOM     25  C   UNL     1       7.443 -43.480 -16.290  1.00  0.00    +0.029 C 
BRANCH  25  26
ATOM     26  C   UNL     1       8.363 -44.041 -17.385  1.00  0.00    +0.009 C 
BRANCH  26  27
ATOM     27  C   UNL     1       7.597 -44.421 -18.667  1.00  0.00    +0.056 C 
BRANCH  27  28
ATOM     28  C   UNL     1       8.527 -45.224 -19.589  1.00  0.00    +0.043 A 
ATOM     29  C   UNL     1       7.995 -46.110 -20.534  1.00  0.00    +0.024 A 
ATOM     30  N   UNL     1       9.855 -45.053 -19.486  1.00  0.00    -0.233 NA
ATOM     31  C   UNL     1       8.866 -46.823 -21.372  1.00  0.00    +0.009 A 
ATOM     32  C   UNL     1      10.724 -45.721 -20.285  1.00  0.00    +0.154 A 
ATOM     33  C   UNL     1      10.248 -46.628 -21.237  1.00  0.00    -0.003 A 
ATOM     34  N   UNL     1      12.188 -45.453 -20.078  1.00  0.00    -0.241 NA
ATOM     35  C   UNL     1      11.254 -47.371 -22.129  1.00  0.00    +0.045 C 
ATOM     36  C   UNL     1      13.119 -45.877 -21.184  1.00  0.00    +0.086 C 
ATOM     37  C   UNL     1      12.458 -46.467 -22.445  1.00  0.00    +0.053 C 
ENDBRANCH  27  28
ENDBRANCH  26  27
ENDBRANCH  25  26
ENDBRANCH  24  25
ENDBRANCH   1  24
TORSDOF 10
ENDMDL
MODEL 3
REMARK VINA RESULT:    -6.925      2.464      3.905
REMARK INTER + INTRA:         -13.544
REMARK INTER:                 -11.046
REMARK INTRA:                  -2.498
REMARK UNBOUND:                -2.570
REMARK SMILES O=C([O-])[C@H](c1cc(F)ccc1[C@@H]1CCCCO1)N1CC[C@@H](OCCCCc2ccc3c(n2)N=CCC3)C1
REMARK SMILES IDX 22 1 21 2 18 3 19 4 37 5 20 6 4 7 5 8 10 9 9 10 11 11 7 12
REMARK SMILES IDX 6 13 8 14 12 15 13 16 17 17 14 18 16 19 15 20 2 21 1 22 3 23
REMARK SMILES IDX 23 24 24 25 25 26 26 27 27 28 28 29 32 30 29 31 31 32 30 33
REMARK SMILES IDX 33 34 36 35 34 36 35 37
REMARK H PARENT
ROOT
ATOM      1  O   UNL     1       6.495 -44.004 -15.683  1.00  0.00    -0.377 OA
ENDROOT
BRANCH   1   2
ATOM      2  C   UNL     1       5.960 -45.236 -15.294  1.00  0.00    +0.133 C 
ATOM      3  N   UNL     1       5.668 -47.010 -16.951  1.00  0.00    -0.289 NA
ATOM      4  C   UNL     1       6.650 -47.515 -15.933  1.00  0.00    +0.088 C 
ATOM      5  C   UNL     1       5.036 -45.763 -16.405  1.00  0.00    +0.117 C 
ATOM      6  C   UNL     1       7.078 -46.282 -15.115  1.00  0.00    +0.049 C 
BRANCH   3   7
ATOM      7  C   UNL     1       4.608 -48.030 -17.235  1.00  0.00    +0.134 C 
BRANCH   7   8
ATOM      8  C   UNL     1       3.612 -47.437 -18.250  1.00  0.00    -0.016 A 
ATOM      9  C   UNL     1       1.459 -47.475 -19.364  1.00  0.00    +0.010 A 
ATOM     10  C   UNL     1       1.807 -46.334 -20.093  1.00  0.00    +0.039 A 
ATOM     11  C   UNL     1       2.356 -48.023 -18.442  1.00  0.00    -0.014 A 
ATOM     12  C   UNL     1       3.059 -45.748 -19.900  1.00  0.00    +0.123 A 
ATOM     13  C   UNL     1       3.960 -46.296 -18.981  1.00  0.00    +0.045 A 
ATOM     14  F   UNL     1       3.421 -44.583 -20.649  1.00  0.00    -0.207 F 
BRANCH  11  15
ATOM     15  C   UNL     1       1.942 -49.281 -17.660  1.00  0.00    +0.148 C 
ATOM     16  C   UNL     1       2.101 -50.492 -18.596  1.00  0.00    +0.037 C 
ATOM     17  O   UNL     1       0.622 -49.137 -17.222  1.00  0.00    -0.374 OA
ATOM     18  C   UNL     1       1.561 -51.784 -17.956  1.00  0.00    +0.005 C 
ATOM     19  C   UNL     1       0.189 -50.237 -16.469  1.00  0.00    +0.161 C 
ATOM     20  C   UNL     1       0.200 -51.550 -17.277  1.00  0.00    +0.029 C 
ENDBRANCH  11  15
ENDBRANCH   7   8
BRANCH   7  21
ATOM     21  C   UNL     1       5.278 -49.281 -17.829  1.00  0.00    +0.063 C 
ATOM     22  O   UNL     1       5.771 -49.215 -18.928  1.00  0.00    -0.548 OA
ATOM     23  O   UNL     1       5.304 -50.314 -17.199  1.00  0.00    -0.548 OA
ENDBRANCH   7  21
ENDBRANCH   3   7
ENDBRANCH   1   2
BRANCH   1  24
ATOM     24  C   UNL     1       7.807 -44.090 -16.156  1.00  0.00    +0.160 C 
BRANCH  24  25
ATOM     25  C   UNL     1       7.764 -43.819 -17.669  1.00  0.00    +0.029 C 
BRANCH  25  26
ATOM     26  C   UNL     1       8.185 -45.061 -18.472  1.00  0.00    +0.009 C 
BRANCH  26  27
ATOM     27  C   UNL     1       8.554 -44.729 -19.930  1.00  0.00    +0.056 C 
BRANCH  27  28
ATOM     28  C   UNL     1       7.497 -45.334 -20.867  1.00  0.00    +0.043 A 
ATOM     29  C   UNL     1       7.200 -46.702 -20.809  1.00  0.00    +0.024 A 
ATOM     30  N   UNL     1       6.854 -44.531 -21.729  1.00  0.00    -0.233 NA
ATOM     31  C   UNL     1       6.222 -47.226 -21.668  1.00  0.00    +0.009 A 
ATOM     32  C   UNL     1       5.899 -45.005 -22.568  1.00  0.00    +0.154 A 
ATOM     33  C   UNL     1       5.571 -46.365 -22.562  1.00  0.00    -0.003 A 
ATOM     34  N   UNL     1       5.247 -44.015 -23.493  1.00  0.00    -0.241 NA
ATOM     35  C   UNL     1       4.485 -46.875 -23.522  1.00  0.00    +0.045 C 
ATOM     36  C   UNL     1       3.951 -44.437 -24.134  1.00  0.00    +0.086 C 
ATOM     37  C   UNL     1       3.392 -45.809 -23.708  1.00  0.00    +0.053 C 
ENDBRANCH  27  28
ENDBRANCH  26  27
ENDBRANCH  25  26
ENDBRANCH  24  25
ENDBRANCH   1  24
TORSDOF 10
ENDMDL
MODEL 4
REMARK VINA RESULT:    -6.893      4.082      5.310
REMARK INTER + INTRA:         -13.492
REMARK INTER:                 -12.536
REMARK INTRA:                  -0.956
REMARK UNBOUND:                -2.570
REMARK SMILES O=C([O-])[C@H](c1cc(F)ccc1[C@@H]1CCCCO1)N1CC[C@@H](OCCCCc2ccc3c(n2)N=CCC3)C1
REMARK SMILES IDX 22 1 21 2 18 3 19 4 37 5 20 6 4 7 5 8 10 9 9 10 11 11 7 12
REMARK SMILES IDX 6 13 8 14 12 15 13 16 17 17 14 18 16 19 15 20 2 21 1 22 3 23
REMARK SMILES IDX 23 24 24 25 25 26 26 27 27 28 28 29 32 30 29 31 31 32 30 33
REMARK SMILES IDX 33 34 36 35 34 36 35 37
REMARK H PARENT
ROOT
ATOM      1  O   UNL     1       9.744 -45.970 -19.446  1.00  0.00    -0.377 OA
ENDROOT
BRANCH   1   2
ATOM      2  C   UNL     1       8.541 -45.276 -19.283  1.00  0.00    +0.133 C 
ATOM      3  N   UNL     1       7.215 -45.603 -17.255  1.00  0.00    -0.289 NA
ATOM      4  C   UNL     1       7.634 -44.162 -17.279  1.00  0.00    +0.088 C 
ATOM      5  C   UNL     1       7.512 -46.194 -18.602  1.00  0.00    +0.117 C 
ATOM      6  C   UNL     1       8.735 -44.063 -18.352  1.00  0.00    +0.049 C 
BRANCH   3   7
ATOM      7  C   UNL     1       5.754 -45.739 -16.956  1.00  0.00    +0.134 C 
BRANCH   7   8
ATOM      8  C   UNL     1       5.394 -47.237 -16.918  1.00  0.00    -0.016 A 
ATOM      9  C   UNL     1       4.014 -49.095 -17.640  1.00  0.00    +0.010 A 
ATOM     10  C   UNL     1       4.763 -49.969 -16.847  1.00  0.00    +0.039 A 
ATOM     11  C   UNL     1       4.329 -47.733 -17.679  1.00  0.00    -0.014 A 
ATOM     12  C   UNL     1       5.826 -49.475 -16.090  1.00  0.00    +0.123 A 
ATOM     13  C   UNL     1       6.143 -48.112 -16.125  1.00  0.00    +0.045 A 
ATOM     14  F   UNL     1       6.592 -50.366 -15.273  1.00  0.00    -0.207 F 
BRANCH  11  15
ATOM     15  C   UNL     1       3.482 -46.799 -18.559  1.00  0.00    +0.148 C 
ATOM     16  C   UNL     1       2.082 -47.424 -18.697  1.00  0.00    +0.037 C 
ATOM     17  O   UNL     1       4.104 -46.647 -19.801  1.00  0.00    -0.374 OA
ATOM     18  C   UNL     1       1.202 -46.642 -19.690  1.00  0.00    +0.005 C 
ATOM     19  C   UNL     1       3.399 -45.776 -20.645  1.00  0.00    +0.161 C 
ATOM     20  C   UNL     1       1.980 -46.283 -20.969  1.00  0.00    +0.029 C 
ENDBRANCH  11  15
ENDBRANCH   7   8
BRANCH   7  21
ATOM     21  C   UNL     1       5.472 -45.100 -15.585  1.00  0.00    +0.063 C 
ATOM     22  O   UNL     1       4.687 -44.187 -15.516  1.00  0.00    -0.548 OA
ATOM     23  O   UNL     1       6.034 -45.511 -14.595  1.00  0.00    -0.548 OA
ENDBRANCH   7  21
ENDBRANCH   3   7
ENDBRANCH   1   2
BRANCH   1  24
ATOM     24  C   UNL     1      10.585 -45.409 -20.411  1.00  0.00    +0.160 C 
BRANCH  24  25
ATOM     25  C   UNL     1      11.092 -46.560 -21.297  1.00  0.00    +0.029 C 
BRANCH  25  26
ATOM     26  C   UNL     1      12.503 -46.272 -21.834  1.00  0.00    +0.009 C 
BRANCH  26  27
ATOM     27  C   UNL     1      13.203 -47.534 -22.373  1.00  0.00    +0.056 C 
BRANCH  27  28
ATOM     28  C   UNL     1      13.465 -47.361 -23.877  1.00  0.00    +0.043 A 
ATOM     29  C   UNL     1      12.702 -48.070 -24.814  1.00  0.00    +0.024 A 
ATOM     30  N   UNL     1      14.423 -46.512 -24.278  1.00  0.00    -0.233 NA
ATOM     31  C   UNL     1      12.954 -47.885 -26.182  1.00  0.00    +0.009 A 
ATOM     32  C   UNL     1      14.688 -46.305 -25.593  1.00  0.00    +0.154 A 
ATOM     33  C   UNL     1      13.966 -46.996 -26.571  1.00  0.00    -0.003 A 
ATOM     34  N   UNL     1      15.786 -45.334 -25.926  1.00  0.00    -0.241 NA
ATOM     35  C   UNL     1      14.286 -46.742 -28.053  1.00  0.00    +0.045 C 
ATOM     36  C   UNL     1      15.826 -44.814 -27.338  1.00  0.00    +0.086 C 
ATOM     37  C   UNL     1      14.687 -45.274 -28.269  1.00  0.00    +0.053 C 
ENDBRANCH  27  28
ENDBRANCH  26  27
ENDBRANCH  25  26
ENDBRANCH  24  25
ENDBRANCH   1  24
TORSDOF 10
ENDMDL
MODEL 5
REMARK VINA RESULT:    -6.872      0.190      0.524
REMARK INTER + INTRA:         -13.460
REMARK INTER:                 -10.853
REMARK INTRA:                  -2.607
REMARK UNBOUND:                -2.570
REMARK SMILES O=C([O-])[C@H](c1cc(F)ccc1[C@@H]1CCCCO1)N1CC[C@@H](OCCCCc2ccc3c(n2)N=CCC3)C1
REMARK SMILES IDX 22 1 21 2 18 3 19 4 37 5 20 6 4 7 5 8 10 9 9 10 11 11 7 12
REMARK SMILES IDX 6 13 8 14 12 15 13 16 17 17 14 18 16 19 15 20 2 21 1 22 3 23
REMARK SMILES IDX 23 24 24 25 25 26 26 27 27 28 28 29 32 30 29 31 31 32 30 33
REMARK SMILES IDX 33 34 36 35 34 36 35 37
REMARK H PARENT
ROOT
ATOM      1  O   UNL     1       9.683 -44.354 -18.848  1.00  0.00    -0.377 OA
ENDROOT
BRANCH   1   2
ATOM      2  C   UNL     1       8.525 -44.016 -18.138  1.00  0.00    +0.133 C 
ATOM      3  N   UNL     1       7.192 -45.773 -17.084  1.00  0.00    -0.289 NA
ATOM      4  C   UNL     1       7.699 -44.886 -15.985  1.00  0.00    +0.088 C 
ATOM      5  C   UNL     1       7.444 -45.081 -18.391  1.00  0.00    +0.117 C 
ATOM      6  C   UNL     1       8.799 -44.015 -16.621  1.00  0.00    +0.049 C 
BRANCH   3   7
ATOM      7  C   UNL     1       5.726 -46.043 -16.932  1.00  0.00    +0.134 C 
BRANCH   7   8
ATOM      8  C   UNL     1       5.474 -47.546 -17.159  1.00  0.00    -0.016 A 
ATOM      9  C   UNL     1       4.106 -49.349 -18.027  1.00  0.00    +0.010 A 
ATOM     10  C   UNL     1       5.040 -50.285 -17.574  1.00  0.00    +0.039 A 
ATOM     11  C   UNL     1       4.323 -47.982 -17.824  1.00  0.00    -0.014 A 
ATOM     12  C   UNL     1       6.189 -49.850 -16.912  1.00  0.00    +0.123 A 
ATOM     13  C   UNL     1       6.407 -48.483 -16.705  1.00  0.00    +0.045 A 
ATOM     14  F   UNL     1       7.144 -50.806 -16.442  1.00  0.00    -0.207 F 
BRANCH  11  15
ATOM     15  C   UNL     1       3.274 -46.980 -18.332  1.00  0.00    +0.148 C 
ATOM     16  C   UNL     1       2.041 -47.780 -18.791  1.00  0.00    +0.037 C 
ATOM     17  O   UNL     1       3.821 -46.231 -19.378  1.00  0.00    -0.374 OA
ATOM     18  C   UNL     1       0.992 -46.877 -19.464  1.00  0.00    +0.005 C 
ATOM     19  C   UNL     1       2.926 -45.269 -19.868  1.00  0.00    +0.161 C 
ATOM     20  C   UNL     1       1.645 -45.896 -20.454  1.00  0.00    +0.029 C 
ENDBRANCH  11  15
ENDBRANCH   7   8
BRANCH   7  21
ATOM     21  C   UNL     1       5.301 -45.651 -15.506  1.00  0.00    +0.063 C 
ATOM     22  O   UNL     1       5.729 -46.282 -14.573  1.00  0.00    -0.548 OA
ATOM     23  O   UNL     1       4.545 -44.721 -15.331  1.00  0.00    -0.548 OA
ENDBRANCH   7  21
ENDBRANCH   3   7
ENDBRANCH   1   2
BRANCH   1  24
ATOM     24  C   UNL     1       9.432 -44.754 -20.163  1.00  0.00    +0.160 C 
BRANCH  24  25
ATOM     25  C   UNL     1      10.263 -46.023 -20.418  1.00  0.00    +0.029 C 
BRANCH  25  26
ATOM     26  C   UNL     1       9.495 -47.028 -21.292  1.00  0.00    +0.009 C 
BRANCH  26  27
ATOM     27  C   UNL     1       8.325 -47.693 -20.543  1.00  0.00    +0.056 C 
BRANCH  27  28
ATOM     28  C   UNL     1       7.030 -47.478 -21.340  1.00  0.00    +0.043 A 
ATOM     29  C   UNL     1       5.960 -48.373 -21.208  1.00  0.00    +0.024 A 
ATOM     30  N   UNL     1       6.934 -46.414 -22.153  1.00  0.00    -0.233 NA
ATOM     31  C   UNL     1       4.784 -48.147 -21.939  1.00  0.00    +0.009 A 
ATOM     32  C   UNL     1       5.809 -46.163 -22.868  1.00  0.00    +0.154 A 
ATOM     33  C   UNL     1       4.715 -47.030 -22.784  1.00  0.00    -0.003 A 
ATOM     34  N   UNL     1       5.815 -44.944 -23.747  1.00  0.00    -0.241 NA
ATOM     35  C   UNL     1       3.453 -46.721 -23.605  1.00  0.00    +0.045 C 
ATOM     36  C   UNL     1       4.477 -44.449 -24.231  1.00  0.00    +0.086 C 
ATOM     37  C   UNL     1       3.239 -45.202 -23.705  1.00  0.00    +0.053 C 
ENDBRANCH  27  28
ENDBRANCH  26  27
ENDBRANCH  25  26
ENDBRANCH  24  25
ENDBRANCH   1  24
TORSDOF 10
ENDMDL
MODEL 6
REMARK VINA RESULT:    -6.778      5.131      7.881
REMARK INTER + INTRA:         -13.310
REMARK INTER:                 -12.120
REMARK INTRA:                  -1.191
REMARK UNBOUND:                -2.570
REMARK SMILES O=C([O-])[C@H](c1cc(F)ccc1[C@@H]1CCCCO1)N1CC[C@@H](OCCCCc2ccc3c(n2)N=CCC3)C1
REMARK SMILES IDX 22 1 21 2 18 3 19 4 37 5 20 6 4 7 5 8 10 9 9 10 11 11 7 12
REMARK SMILES IDX 6 13 8 14 12 15 13 16 17 17 14 18 16 19 15 20 2 21 1 22 3 23
REMARK SMILES IDX 23 24 24 25 25 26 26 27 27 28 28 29 32 30 29 31 31 32 30 33
REMARK SMILES IDX 33 34 36 35 34 36 35 37
REMARK H PARENT
ROOT
ATOM      1  O   UNL     1      11.021 -47.286 -16.582  1.00  0.00    -0.377 OA
ENDROOT
BRANCH   1   2
ATOM      2  C   UNL     1      10.122 -46.269 -16.919  1.00  0.00    +0.133 C 
ATOM      3  N   UNL     1       7.912 -46.208 -15.876  1.00  0.00    -0.289 NA
ATOM      4  C   UNL     1       8.628 -44.954 -15.465  1.00  0.00    +0.088 C 
ATOM      5  C   UNL     1       8.698 -46.848 -16.982  1.00  0.00    +0.117 C 
ATOM      6  C   UNL     1      10.107 -45.175 -15.834  1.00  0.00    +0.049 C 
BRANCH   3   7
ATOM      7  C   UNL     1       6.523 -45.909 -16.353  1.00  0.00    +0.134 C 
BRANCH   7   8
ATOM      8  C   UNL     1       5.812 -47.239 -16.668  1.00  0.00    -0.016 A 
ATOM      9  C   UNL     1       4.358 -48.572 -18.077  1.00  0.00    +0.010 A 
ATOM     10  C   UNL     1       4.537 -49.672 -17.233  1.00  0.00    +0.039 A 
ATOM     11  C   UNL     1       4.996 -47.359 -17.799  1.00  0.00    -0.014 A 
ATOM     12  C   UNL     1       5.352 -49.552 -16.107  1.00  0.00    +0.123 A 
ATOM     13  C   UNL     1       5.989 -48.339 -15.824  1.00  0.00    +0.045 A 
ATOM     14  F   UNL     1       5.532 -50.674 -15.237  1.00  0.00    -0.207 F 
BRANCH  11  15
ATOM     15  C   UNL     1       4.775 -46.169 -18.746  1.00  0.00    +0.148 C 
ATOM     16  C   UNL     1       3.320 -46.228 -19.246  1.00  0.00    +0.037 C 
ATOM     17  O   UNL     1       5.687 -46.246 -19.803  1.00  0.00    -0.374 OA
ATOM     18  C   UNL     1       3.042 -45.166 -20.326  1.00  0.00    +0.005 C 
ATOM     19  C   UNL     1       5.563 -45.167 -20.691  1.00  0.00    +0.161 C 
ATOM     20  C   UNL     1       4.178 -45.109 -21.364  1.00  0.00    +0.029 C 
ENDBRANCH  11  15
ENDBRANCH   7   8
BRANCH   7  21
ATOM     21  C   UNL     1       5.771 -45.165 -15.236  1.00  0.00    +0.063 C 
ATOM     22  O   UNL     1       5.756 -45.636 -14.126  1.00  0.00    -0.548 OA
ATOM     23  O   UNL     1       5.202 -44.123 -15.475  1.00  0.00    -0.548 OA
ENDBRANCH   7  21
ENDBRANCH   3   7
ENDBRANCH   1   2
BRANCH   1  24
ATOM     24  C   UNL     1      11.519 -47.181 -15.281  1.00  0.00    +0.160 C 
BRANCH  24  25
ATOM     25  C   UNL     1      13.054 -47.168 -15.381  1.00  0.00    +0.029 C 
BRANCH  25  26
ATOM     26  C   UNL     1      13.692 -46.565 -14.120  1.00  0.00    +0.009 C 
BRANCH  26  27
ATOM     27  C   UNL     1      15.144 -47.032 -13.906  1.00  0.00    +0.056 C 
BRANCH  27  28
ATOM     28  C   UNL     1      16.057 -46.311 -14.909  1.00  0.00    +0.043 A 
ATOM     29  C   UNL     1      16.688 -47.027 -15.934  1.00  0.00    +0.024 A 
ATOM     30  N   UNL     1      16.230 -44.985 -14.796  1.00  0.00    -0.233 NA
ATOM     31  C   UNL     1      17.508 -46.342 -16.844  1.00  0.00    +0.009 A 
ATOM     32  C   UNL     1      17.011 -44.291 -15.662  1.00  0.00    +0.154 A 
ATOM     33  C   UNL     1      17.674 -44.958 -16.697  1.00  0.00    -0.003 A 
ATOM     34  N   UNL     1      17.134 -42.810 -15.438  1.00  0.00    -0.241 NA
ATOM     35  C   UNL     1      18.552 -44.147 -17.665  1.00  0.00    +0.045 C 
ATOM     36  C   UNL     1      17.663 -41.992 -16.586  1.00  0.00    +0.086 C 
ATOM     37  C   UNL     1      17.946 -42.753 -17.896  1.00  0.00    +0.053 C 
ENDBRANCH  27  28
ENDBRANCH  26  27
ENDBRANCH  25  26
ENDBRANCH  24  25
ENDBRANCH   1  24
TORSDOF 10
ENDMDL
MODEL 7
REMARK VINA RESULT:    -6.770      2.819      5.287
REMARK INTER + INTRA:         -13.298
REMARK INTER:                 -11.281
REMARK INTRA:                  -2.017
REMARK UNBOUND:                -2.570
REMARK SMILES O=C([O-])[C@H](c1cc(F)ccc1[C@@H]1CCCCO1)N1CC[C@@H](OCCCCc2ccc3c(n2)N=CCC3)C1
REMARK SMILES IDX 22 1 21 2 18 3 19 4 37 5 20 6 4 7 5 8 10 9 9 10 11 11 7 12
REMARK SMILES IDX 6 13 8 14 12 15 13 16 17 17 14 18 16 19 15 20 2 21 1 22 3 23
REMARK SMILES IDX 23 24 24 25 25 26 26 27 27 28 28 29 32 30 29 31 31 32 30 33
REMARK SMILES IDX 33 34 36 35 34 36 35 37
REMARK H PARENT
ROOT
ATOM      1  O   UNL     1       7.097 -45.428 -14.973  1.00  0.00    -0.377 OA
ENDROOT
BRANCH   1   2
ATOM      2  C   UNL     1       6.747 -46.777 -15.102  1.00  0.00    +0.133 C 
ATOM      3  N   UNL     1       5.927 -47.618 -17.246  1.00  0.00    -0.289 NA
ATOM      4  C   UNL     1       7.206 -48.344 -16.949  1.00  0.00    +0.088 C 
ATOM      5  C   UNL     1       5.504 -46.896 -16.000  1.00  0.00    +0.117 C 
ATOM      6  C   UNL     1       7.873 -47.566 -15.798  1.00  0.00    +0.049 C 
BRANCH   3   7
ATOM      7  C   UNL     1       4.848 -48.569 -17.668  1.00  0.00    +0.134 C 
BRANCH   7   8
ATOM      8  C   UNL     1       3.761 -47.780 -18.423  1.00  0.00    -0.016 A 
ATOM      9  C   UNL     1       1.450 -47.480 -19.090  1.00  0.00    +0.010 A 
ATOM     10  C   UNL     1       1.795 -46.322 -19.793  1.00  0.00    +0.039 A 
ATOM     11  C   UNL     1       2.429 -48.205 -18.403  1.00  0.00    -0.014 A 
ATOM     12  C   UNL     1       3.124 -45.897 -19.812  1.00  0.00    +0.123 A 
ATOM     13  C   UNL     1       4.106 -46.623 -19.128  1.00  0.00    +0.045 A 
ATOM     14  F   UNL     1       3.482 -44.716 -20.536  1.00  0.00    -0.207 F 
BRANCH  11  15
ATOM     15  C   UNL     1       2.014 -49.476 -17.642  1.00  0.00    +0.148 C 
ATOM     16  C   UNL     1       2.010 -50.645 -18.644  1.00  0.00    +0.037 C 
ATOM     17  O   UNL     1       0.753 -49.280 -17.072  1.00  0.00    -0.374 OA
ATOM     18  C   UNL     1       1.456 -51.936 -18.013  1.00  0.00    +0.005 C 
ATOM     19  C   UNL     1       0.327 -50.392 -16.331  1.00  0.00    +0.161 C 
ATOM     20  C   UNL     1       0.182 -51.660 -17.195  1.00  0.00    +0.029 C 
ENDBRANCH  11  15
ENDBRANCH   7   8
BRANCH   7  21
ATOM     21  C   UNL     1       5.465 -49.629 -18.596  1.00  0.00    +0.063 C 
ATOM     22  O   UNL     1       5.509 -50.776 -18.226  1.00  0.00    -0.548 OA
ATOM     23  O   UNL     1       5.898 -49.311 -19.681  1.00  0.00    -0.548 OA
ENDBRANCH   7  21
ENDBRANCH   3   7
ENDBRANCH   1   2
BRANCH   1  24
ATOM     24  C   UNL     1       6.610 -44.625 -16.009  1.00  0.00    +0.160 C 
BRANCH  24  25
ATOM     25  C   UNL     1       7.734 -43.648 -16.393  1.00  0.00    +0.029 C 
BRANCH  25  26
ATOM     26  C   UNL     1       7.989 -43.658 -17.909  1.00  0.00    +0.009 C 
BRANCH  26  27
ATOM     27  C   UNL     1       7.285 -44.829 -18.622  1.00  0.00    +0.056 C 
BRANCH  27  28
ATOM     28  C   UNL     1       8.287 -45.525 -19.556  1.00  0.00    +0.043 A 
ATOM     29  C   UNL     1       7.833 -46.335 -20.604  1.00  0.00    +0.024 A 
ATOM     30  N   UNL     1       9.601 -45.333 -19.361  1.00  0.00    -0.233 NA
ATOM     31  C   UNL     1       8.768 -46.950 -21.449  1.00  0.00    +0.009 A 
ATOM     32  C   UNL     1      10.532 -45.908 -20.164  1.00  0.00    +0.154 A 
ATOM     33  C   UNL     1      10.135 -46.736 -21.218  1.00  0.00    -0.003 A 
ATOM     34  N   UNL     1      11.975 -45.626 -19.850  1.00  0.00    -0.241 NA
ATOM     35  C   UNL     1      11.210 -47.373 -22.112  1.00  0.00    +0.045 C 
ATOM     36  C   UNL     1      12.976 -45.927 -20.934  1.00  0.00    +0.086 C 
ATOM     37  C   UNL     1      12.403 -46.417 -22.278  1.00  0.00    +0.053 C 
ENDBRANCH  27  28
ENDBRANCH  26  27
ENDBRANCH  25  26
ENDBRANCH  24  25
ENDBRANCH   1  24
TORSDOF 10
ENDMDL
MODEL 8
REMARK VINA RESULT:    -6.763      4.057      7.260
REMARK INTER + INTRA:         -13.286
REMARK INTER:                 -11.873
REMARK INTRA:                  -1.413
REMARK UNBOUND:                -2.570
REMARK SMILES O=C([O-])[C@H](c1cc(F)ccc1[C@@H]1CCCCO1)N1CC[C@@H](OCCCCc2ccc3c(n2)N=CCC3)C1
REMARK SMILES IDX 22 1 21 2 18 3 19 4 37 5 20 6 4 7 5 8 10 9 9 10 11 11 7 12
REMARK SMILES IDX 6 13 8 14 12 15 13 16 17 17 14 18 16 19 15 20 2 21 1 22 3 23
REMARK SMILES IDX 23 24 24 25 25 26 26 27 27 28 28 29 32 30 29 31 31 32 30 33
REMARK SMILES IDX 33 34 36 35 34 36 35 37
REMARK H PARENT
ROOT
ATOM      1  O   UNL     1      10.002 -45.999 -18.690  1.00  0.00    -0.377 OA
ENDROOT
BRANCH   1   2
ATOM      2  C   UNL     1       8.736 -45.417 -18.822  1.00  0.00    +0.133 C 
ATOM      3  N   UNL     1       7.165 -45.491 -16.951  1.00  0.00    -0.289 NA
ATOM      4  C   UNL     1       7.468 -44.045 -17.214  1.00  0.00    +0.088 C 
ATOM      5  C   UNL     1       7.696 -46.293 -18.103  1.00  0.00    +0.117 C 
ATOM      6  C   UNL     1       8.700 -44.036 -18.139  1.00  0.00    +0.049 C 
BRANCH   3   7
ATOM      7  C   UNL     1       5.691 -45.721 -16.814  1.00  0.00    +0.134 C 
BRANCH   7   8
ATOM      8  C   UNL     1       5.423 -47.238 -16.836  1.00  0.00    -0.016 A 
ATOM      9  C   UNL     1       4.189 -49.152 -17.669  1.00  0.00    +0.010 A 
ATOM     10  C   UNL     1       4.959 -50.004 -16.873  1.00  0.00    +0.039 A 
ATOM     11  C   UNL     1       4.422 -47.773 -17.655  1.00  0.00    -0.014 A 
ATOM     12  C   UNL     1       5.959 -49.472 -16.059  1.00  0.00    +0.123 A 
ATOM     13  C   UNL     1       6.192 -48.092 -16.039  1.00  0.00    +0.045 A 
ATOM     14  F   UNL     1       6.746 -50.341 -15.237  1.00  0.00    -0.207 F 
BRANCH  11  15
ATOM     15  C   UNL     1       3.554 -46.864 -18.540  1.00  0.00    +0.148 C 
ATOM     16  C   UNL     1       2.143 -47.478 -18.607  1.00  0.00    +0.037 C 
ATOM     17  O   UNL     1       4.134 -46.766 -19.808  1.00  0.00    -0.374 OA
ATOM     18  C   UNL     1       1.238 -46.726 -19.599  1.00  0.00    +0.005 C 
ATOM     19  C   UNL     1       3.409 -45.920 -20.660  1.00  0.00    +0.161 C 
ATOM     20  C   UNL     1       1.975 -46.424 -20.916  1.00  0.00    +0.029 C 
ENDBRANCH  11  15
ENDBRANCH   7   8
BRANCH   7  21
ATOM     21  C   UNL     1       5.224 -45.127 -15.474  1.00  0.00    +0.063 C 
ATOM     22  O   UNL     1       4.246 -44.421 -15.456  1.00  0.00    -0.548 OA
ATOM     23  O   UNL     1       5.833 -45.369 -14.456  1.00  0.00    -0.548 OA
ENDBRANCH   7  21
ENDBRANCH   3   7
ENDBRANCH   1   2
BRANCH   1  24
ATOM     24  C   UNL     1      10.076 -46.944 -17.662  1.00  0.00    +0.160 C 
BRANCH  24  25
ATOM     25  C   UNL     1      10.988 -46.358 -16.571  1.00  0.00    +0.029 C 
BRANCH  25  26
ATOM     26  C   UNL     1      10.175 -45.904 -15.348  1.00  0.00    +0.009 C 
BRANCH  26  27
ATOM     27  C   UNL     1      11.067 -45.496 -14.160  1.00  0.00    +0.056 C 
BRANCH  27  28
ATOM     28  C   UNL     1      11.973 -46.678 -13.781  1.00  0.00    +0.043 A 
ATOM     29  C   UNL     1      13.358 -46.599 -13.978  1.00  0.00    +0.024 A 
ATOM     30  N   UNL     1      11.420 -47.778 -13.247  1.00  0.00    -0.233 NA
ATOM     31  C   UNL     1      14.163 -47.688 -13.613  1.00  0.00    +0.009 A 
ATOM     32  C   UNL     1      12.171 -48.845 -12.878  1.00  0.00    +0.154 A 
ATOM     33  C   UNL     1      13.557 -48.826 -13.063  1.00  0.00    -0.003 A 
ATOM     34  N   UNL     1      11.445 -50.024 -12.293  1.00  0.00    -0.241 NA
ATOM     35  C   UNL     1      14.384 -50.049 -12.635  1.00  0.00    +0.045 C 
ATOM     36  C   UNL     1      12.277 -51.028 -11.539  1.00  0.00    +0.086 C 
ATOM     37  C   UNL     1      13.773 -50.695 -11.380  1.00  0.00    +0.053 C 
ENDBRANCH  27  28
ENDBRANCH  26  27
ENDBRANCH  25  26
ENDBRANCH  24  25
ENDBRANCH   1  24
TORSDOF 10
ENDMDL
MODEL 9
REMARK VINA RESULT:    -6.738      0.637      0.888
REMARK INTER + INTRA:         -13.247
REMARK INTER:                 -10.549
REMARK INTRA:                  -2.699
REMARK UNBOUND:                -2.570
REMARK SMILES O=C([O-])[C@H](c1cc(F)ccc1[C@@H]1CCCCO1)N1CC[C@@H](OCCCCc2ccc3c(n2)N=CCC3)C1
REMARK SMILES IDX 22 1 21 2 18 3 19 4 37 5 20 6 4 7 5 8 10 9 9 10 11 11 7 12
REMARK SMILES IDX 6 13 8 14 12 15 13 16 17 17 14 18 16 19 15 20 2 21 1 22 3 23
REMARK SMILES IDX 23 24 24 25 25 26 26 27 27 28 28 29 32 30 29 31 31 32 30 33
REMARK SMILES IDX 33 34 36 35 34 36 35 37
REMARK H PARENT
ROOT
ATOM      1  O   UNL     1       9.643 -45.417 -19.290  1.00  0.00    -0.377 OA
ENDROOT
BRANCH   1   2
ATOM      2  C   UNL     1       8.401 -44.822 -19.043  1.00  0.00    +0.133 C 
ATOM      3  N   UNL     1       7.025 -45.611 -17.183  1.00  0.00    -0.289 NA
ATOM      4  C   UNL     1       7.371 -44.178 -16.898  1.00  0.00    +0.088 C 
ATOM      5  C   UNL     1       7.397 -45.902 -18.607  1.00  0.00    +0.117 C 
ATOM      6  C   UNL     1       8.502 -43.816 -17.880  1.00  0.00    +0.049 C 
BRANCH   3   7
ATOM      7  C   UNL     1       5.563 -45.867 -16.981  1.00  0.00    +0.134 C 
BRANCH   7   8
ATOM      8  C   UNL     1       5.294 -47.372 -17.166  1.00  0.00    -0.016 A 
ATOM      9  C   UNL     1       3.976 -49.183 -18.095  1.00  0.00    +0.010 A 
ATOM     10  C   UNL     1       4.831 -50.118 -17.503  1.00  0.00    +0.039 A 
ATOM     11  C   UNL     1       4.209 -47.814 -17.931  1.00  0.00    -0.014 A 
ATOM     12  C   UNL     1       5.914 -49.678 -16.742  1.00  0.00    +0.123 A 
ATOM     13  C   UNL     1       6.148 -48.308 -16.573  1.00  0.00    +0.045 A 
ATOM     14  F   UNL     1       6.787 -50.633 -16.129  1.00  0.00    -0.207 F 
BRANCH  11  15
ATOM     15  C   UNL     1       3.248 -46.813 -18.593  1.00  0.00    +0.148 C 
ATOM     16  C   UNL     1       1.960 -47.571 -18.965  1.00  0.00    +0.037 C 
ATOM     17  O   UNL     1       3.863 -46.259 -19.719  1.00  0.00    -0.374 OA
ATOM     18  C   UNL     1       0.993 -46.690 -19.777  1.00  0.00    +0.005 C 
ATOM     19  C   UNL     1       3.052 -45.307 -20.355  1.00  0.00    +0.161 C 
ATOM     20  C   UNL     1       1.732 -45.908 -20.877  1.00  0.00    +0.029 C 
ENDBRANCH  11  15
ENDBRANCH   7   8
BRANCH   7  21
ATOM     21  C   UNL     1       5.182 -45.439 -15.553  1.00  0.00    +0.063 C 
ATOM     22  O   UNL     1       5.709 -45.989 -14.618  1.00  0.00    -0.548 OA
ATOM     23  O   UNL     1       4.365 -44.564 -15.377  1.00  0.00    -0.548 OA
ENDBRANCH   7  21
ENDBRANCH   3   7
ENDBRANCH   1   2
BRANCH   1  24
ATOM     24  C   UNL     1       9.551 -46.754 -19.687  1.00  0.00    +0.160 C 
BRANCH  24  25
ATOM     25  C   UNL     1       9.592 -46.775 -21.225  1.00  0.00    +0.029 C 
BRANCH  25  26
ATOM     26  C   UNL     1       8.829 -47.985 -21.787  1.00  0.00    +0.009 C 
BRANCH  26  27
ATOM     27  C   UNL     1       7.494 -48.236 -21.060  1.00  0.00    +0.056 C 
BRANCH  27  28
ATOM     28  C   UNL     1       6.342 -47.702 -21.926  1.00  0.00    +0.043 A 
ATOM     29  C   UNL     1       5.179 -48.462 -22.104  1.00  0.00    +0.024 A 
ATOM     30  N   UNL     1       6.462 -46.493 -22.495  1.00  0.00    -0.233 NA
ATOM     31  C   UNL     1       4.138 -47.946 -22.889  1.00  0.00    +0.009 A 
ATOM     32  C   UNL     1       5.471 -45.962 -23.255  1.00  0.00    +0.154 A 
ATOM     33  C   UNL     1       4.293 -46.683 -23.477  1.00  0.00    -0.003 A 
ATOM     34  N   UNL     1       5.715 -44.602 -23.846  1.00  0.00    -0.241 NA
ATOM     35  C   UNL     1       3.187 -46.057 -24.341  1.00  0.00    +0.045 C 
ATOM     36  C   UNL     1       4.509 -43.854 -24.351  1.00  0.00    +0.086 C 
ATOM     37  C   UNL     1       3.143 -44.534 -24.133  1.00  0.00    +0.053 C 
ENDBRANCH  27  28
ENDBRANCH  26  27
ENDBRANCH  25  26
ENDBRANCH  24  25
ENDBRANCH   1  24
TORSDOF 10
ENDMDL
MODEL 10
REMARK VINA RESULT:    -6.443      4.983      7.752
REMARK INTER + INTRA:         -12.780
REMARK INTER:                 -11.408
REMARK INTRA:                  -1.372
REMARK UNBOUND:                -2.570
REMARK SMILES O=C([O-])[C@H](c1cc(F)ccc1[C@@H]1CCCCO1)N1CC[C@@H](OCCCCc2ccc3c(n2)N=CCC3)C1
REMARK SMILES IDX 22 1 21 2 18 3 19 4 37 5 20 6 4 7 5 8 10 9 9 10 11 11 7 12
REMARK SMILES IDX 6 13 8 14 12 15 13 16 17 17 14 18 16 19 15 20 2 21 1 22 3 23
REMARK SMILES IDX 23 24 24 25 25 26 26 27 27 28 28 29 32 30 29 31 31 32 30 33
REMARK SMILES IDX 33 34 36 35 34 36 35 37
REMARK H PARENT
ROOT
ATOM      1  O   UNL     1      11.202 -47.706 -15.212  1.00  0.00    -0.377 OA
ENDROOT
BRANCH   1   2
ATOM      2  C   UNL     1      10.533 -46.691 -15.905  1.00  0.00    +0.133 C 
ATOM      3  N   UNL     1       8.212 -46.165 -15.344  1.00  0.00    -0.289 NA
ATOM      4  C   UNL     1       9.025 -44.939 -15.046  1.00  0.00    +0.088 C 
ATOM      5  C   UNL     1       9.070 -47.110 -16.133  1.00  0.00    +0.117 C 
ATOM      6  C   UNL     1      10.497 -45.396 -15.071  1.00  0.00    +0.049 C 
BRANCH   3   7
ATOM      7  C   UNL     1       6.983 -45.824 -16.131  1.00  0.00    +0.134 C 
BRANCH   7   8
ATOM      8  C   UNL     1       6.341 -47.130 -16.636  1.00  0.00    -0.016 A 
ATOM      9  C   UNL     1       5.325 -48.435 -18.409  1.00  0.00    +0.010 A 
ATOM     10  C   UNL     1       5.186 -49.520 -17.540  1.00  0.00    +0.039 A 
ATOM     11  C   UNL     1       5.905 -47.243 -17.961  1.00  0.00    -0.014 A 
ATOM     12  C   UNL     1       5.623 -49.408 -16.219  1.00  0.00    +0.123 A 
ATOM     13  C   UNL     1       6.200 -48.216 -15.767  1.00  0.00    +0.045 A 
ATOM     14  F   UNL     1       5.476 -50.516 -15.325  1.00  0.00    -0.207 F 
BRANCH  11  15
ATOM     15  C   UNL     1       6.040 -46.068 -18.942  1.00  0.00    +0.148 C 
ATOM     16  C   UNL     1       4.822 -46.098 -19.884  1.00  0.00    +0.037 C 
ATOM     17  O   UNL     1       7.240 -46.192 -19.647  1.00  0.00    -0.374 OA
ATOM     18  C   UNL     1       4.942 -45.052 -21.008  1.00  0.00    +0.005 C 
ATOM     19  C   UNL     1       7.445 -45.129 -20.540  1.00  0.00    +0.161 C 
ATOM     20  C   UNL     1       6.352 -45.047 -21.624  1.00  0.00    +0.029 C 
ENDBRANCH  11  15
ENDBRANCH   7   8
BRANCH   7  21
ATOM     21  C   UNL     1       6.002 -45.080 -15.210  1.00  0.00    +0.063 C 
ATOM     22  O   UNL     1       5.729 -45.559 -14.137  1.00  0.00    -0.548 OA
ATOM     23  O   UNL     1       5.513 -44.030 -15.562  1.00  0.00    -0.548 OA
ENDBRANCH   7  21
ENDBRANCH   3   7
ENDBRANCH   1   2
BRANCH   1  24
ATOM     24  C   UNL     1      11.425 -47.407 -13.865  1.00  0.00    +0.160 C 
BRANCH  24  25
ATOM     25  C   UNL     1      12.305 -48.530 -13.290  1.00  0.00    +0.029 C 
BRANCH  25  26
ATOM     26  C   UNL     1      13.690 -48.551 -13.956  1.00  0.00    +0.009 C 
BRANCH  26  27
ATOM     27  C   UNL     1      14.593 -47.395 -13.485  1.00  0.00    +0.056 C 
BRANCH  27  28
ATOM     28  C   UNL     1      15.137 -46.649 -14.713  1.00  0.00    +0.043 A 
ATOM     29  C   UNL     1      14.609 -46.901 -15.986  1.00  0.00    +0.024 A 
ATOM     30  N   UNL     1      16.113 -45.743 -14.546  1.00  0.00    -0.233 NA
ATOM     31  C   UNL     1      15.115 -46.198 -17.089  1.00  0.00    +0.009 A 
ATOM     32  C   UNL     1      16.621 -45.041 -15.591  1.00  0.00    +0.154 A 
ATOM     33  C   UNL     1      16.140 -45.262 -16.885  1.00  0.00    -0.003 A 
ATOM     34  N   UNL     1      17.713 -44.055 -15.286  1.00  0.00    -0.241 NA
ATOM     35  C   UNL     1      16.732 -44.453 -18.049  1.00  0.00    +0.045 C 
ATOM     36  C   UNL     1      18.005 -43.019 -16.339  1.00  0.00    +0.086 C 
ATOM     37  C   UNL     1      17.095 -43.033 -17.583  1.00  0.00    +0.053 C 
ENDBRANCH  27  28
ENDBRANCH  26  27
ENDBRANCH  25  26
ENDBRANCH  24  25
ENDBRANCH   1  24
TORSDOF 10
ENDMDL
