REMARK SMILES O=C(CCCCc1ccc2c(n1)NCCC2)NCC[C@H](NC(=O)c1nc2ccccc2s1)C(=O)[O-]
REMARK SMILES IDX 2 1 17 2 1 3 3 5 4 6 5 7 6 8 7 9 8 10 12 11 9 12 11 13 10 14
REMARK SMILES IDX 13 15 16 16 14 17 15 18 18 20 19 21 20 22 33 23 34 24 35 25
REMARK SMILES IDX 21 26 22 27 23 28 24 30 32 31 25 32 31 33 26 34 30 35 27 36
REMARK SMILES IDX 29 37 28 38
REMARK H PARENT 17 4 13 19 21 29
ROOT
ATOM      1  C   UNL     1      17.939  41.855  40.680  1.00  0.00    +0.219 C 
ATOM      2  N   UNL     1      19.145  41.313  40.222  1.00  0.00    -0.356 N 
ATOM      3  O   UNL     1      17.218  41.155  41.413  1.00  0.00    -0.275 OA
ATOM      4  H   UNL     1      19.760  41.877  39.618  1.00  0.00    +0.163 HD
ENDROOT
BRANCH   1   5
ATOM      5  C   UNL     1      17.518  43.244  40.338  1.00  0.00    +0.100 C 
BRANCH   5   6
ATOM      6  C   UNL     1      16.783  43.926  41.509  1.00  0.00    +0.010 C 
BRANCH   6   7
ATOM      7  C   UNL     1      17.653  44.674  42.510  1.00  0.00    +0.007 C 
BRANCH   7   8
ATOM      8  C   UNL     1      16.805  45.483  43.513  1.00  0.00    +0.056 C 
BRANCH   8   9
ATOM      9  C   UNL     1      16.886  47.018  43.321  1.00  0.00    +0.043 A 
ATOM     10  C   UNL     1      18.115  47.660  43.573  1.00  0.00    +0.024 A 
ATOM     11  N   UNL     1      15.819  47.727  42.907  1.00  0.00    -0.236 NA
ATOM     12  C   UNL     1      18.217  49.058  43.402  1.00  0.00    +0.009 A 
ATOM     13  C   UNL     1      15.901  49.090  42.739  1.00  0.00    +0.129 A 
ATOM     14  C   UNL     1      17.096  49.816  42.974  1.00  0.00    -0.005 A 
ATOM     15  N   UNL     1      14.696  49.769  42.289  1.00  0.00    -0.370 N 
ATOM     16  C   UNL     1      17.187  51.301  42.783  1.00  0.00    +0.041 C 
ATOM     17  C   UNL     1      14.582  51.188  42.635  1.00  0.00    +0.115 C 
ATOM     18  C   UNL     1      15.858  52.042  42.417  1.00  0.00    +0.026 C 
ATOM     19  H   UNL     1      13.963  49.279  41.756  1.00  0.00    +0.162 HD
ENDBRANCH   8   9
ENDBRANCH   7   8
ENDBRANCH   6   7
ENDBRANCH   5   6
ENDBRANCH   1   5
BRANCH   2  20
ATOM     20  C   UNL     1      19.533  39.989  40.581  1.00  0.00    +0.118 C 
BRANCH  20  21
ATOM     21  C   UNL     1      20.487  39.392  39.557  1.00  0.00    +0.052 C 
BRANCH  21  22
ATOM     22  C   UNL     1      21.119  38.121  40.116  1.00  0.00    +0.130 C 
BRANCH  22  23
ATOM     23  C   UNL     1      21.183  37.049  38.974  1.00  0.00    +0.064 C 
ATOM     24  O   UNL     1      20.101  36.545  38.499  1.00  0.00    -0.548 OA
ATOM     25  O   UNL     1      22.338  36.709  38.534  1.00  0.00    -0.548 OA
ENDBRANCH  22  23
BRANCH  22  26
ATOM     26  N   UNL     1      22.454  38.329  40.698  1.00  0.00    -0.342 N 
ATOM     27  C   UNL     1      22.647  38.824  41.987  1.00  0.00    +0.280 C 
ATOM     28  O   UNL     1      21.737  39.196  42.733  1.00  0.00    -0.267 OA
ATOM     29  H   UNL     1      23.281  38.099  40.129  1.00  0.00    +0.164 HD
BRANCH  27  30
ATOM     30  C   UNL     1      24.079  38.979  42.528  1.00  0.00    +0.182 A 
ATOM     31  S   UNL     1      24.551  39.406  44.231  1.00  0.00    -0.109 S 
ATOM     32  N   UNL     1      25.193  38.771  41.809  1.00  0.00    -0.231 NA
ATOM     33  C   UNL     1      26.304  39.313  43.869  1.00  0.00    +0.055 A 
ATOM     34  C   UNL     1      26.418  38.958  42.516  1.00  0.00    +0.082 A 
ATOM     35  C   UNL     1      27.456  39.520  44.652  1.00  0.00    +0.021 A 
ATOM     36  C   UNL     1      27.713  38.806  41.940  1.00  0.00    +0.030 A 
ATOM     37  C   UNL     1      28.738  39.370  44.076  1.00  0.00    +0.002 A 
ATOM     38  C   UNL     1      28.869  39.010  42.712  1.00  0.00    +0.002 A 
ENDBRANCH  27  30
ENDBRANCH  22  26
ENDBRANCH  21  22
ENDBRANCH  20  21
ENDBRANCH   2  20
TORSDOF 11
