MODEL 3
REMARK VINA RESULT:    -6.925      2.464      3.905
REMARK INTER + INTRA:         -13.544
REMARK INTER:                 -11.046
REMARK INTRA:                  -2.498
REMARK UNBOUND:                -2.570
REMARK SMILES O=C([O-])[C@H](c1cc(F)ccc1[C@@H]1CCCCO1)N1CC[C@@H](OCCCCc2ccc3c(n2)N=CCC3)C1
REMARK SMILES IDX 22 1 21 2 18 3 19 4 37 5 20 6 4 7 5 8 10 9 9 10 11 11 7 12
REMARK SMILES IDX 6 13 8 14 12 15 13 16 17 17 14 18 16 19 15 20 2 21 1 22 3 23
REMARK SMILES IDX 23 24 24 25 25 26 26 27 27 28 28 29 32 30 29 31 31 32 30 33
REMARK SMILES IDX 33 34 36 35 34 36 35 37
REMARK H PARENT
ROOT
ATOM      1  O   UNL     1       6.495 -44.004 -15.683  1.00  0.00    -0.377 OA
ENDROOT
BRANCH   1   2
ATOM      2  C   UNL     1       5.960 -45.236 -15.294  1.00  0.00    +0.133 C 
ATOM      3  N   UNL     1       5.668 -47.010 -16.951  1.00  0.00    -0.289 NA
ATOM      4  C   UNL     1       6.650 -47.515 -15.933  1.00  0.00    +0.088 C 
ATOM      5  C   UNL     1       5.036 -45.763 -16.405  1.00  0.00    +0.117 C 
ATOM      6  C   UNL     1       7.078 -46.282 -15.115  1.00  0.00    +0.049 C 
BRANCH   3   7
ATOM      7  C   UNL     1       4.608 -48.030 -17.235  1.00  0.00    +0.134 C 
BRANCH   7   8
ATOM      8  C   UNL     1       3.612 -47.437 -18.250  1.00  0.00    -0.016 A 
ATOM      9  C   UNL     1       1.459 -47.475 -19.364  1.00  0.00    +0.010 A 
ATOM     10  C   UNL     1       1.807 -46.334 -20.093  1.00  0.00    +0.039 A 
ATOM     11  C   UNL     1       2.356 -48.023 -18.442  1.00  0.00    -0.014 A 
ATOM     12  C   UNL     1       3.059 -45.748 -19.900  1.00  0.00    +0.123 A 
ATOM     13  C   UNL     1       3.960 -46.296 -18.981  1.00  0.00    +0.045 A 
ATOM     14  F   UNL     1       3.421 -44.583 -20.649  1.00  0.00    -0.207 F 
BRANCH  11  15
ATOM     15  C   UNL     1       1.942 -49.281 -17.660  1.00  0.00    +0.148 C 
ATOM     16  C   UNL     1       2.101 -50.492 -18.596  1.00  0.00    +0.037 C 
ATOM     17  O   UNL     1       0.622 -49.137 -17.222  1.00  0.00    -0.374 OA
ATOM     18  C   UNL     1       1.561 -51.784 -17.956  1.00  0.00    +0.005 C 
ATOM     19  C   UNL     1       0.189 -50.237 -16.469  1.00  0.00    +0.161 C 
ATOM     20  C   UNL     1       0.200 -51.550 -17.277  1.00  0.00    +0.029 C 
ENDBRANCH  11  15
ENDBRANCH   7   8
BRANCH   7  21
ATOM     21  C   UNL     1       5.278 -49.281 -17.829  1.00  0.00    +0.063 C 
ATOM     22  O   UNL     1       5.771 -49.215 -18.928  1.00  0.00    -0.548 OA
ATOM     23  O   UNL     1       5.304 -50.314 -17.199  1.00  0.00    -0.548 OA
ENDBRANCH   7  21
ENDBRANCH   3   7
ENDBRANCH   1   2
BRANCH   1  24
ATOM     24  C   UNL     1       7.807 -44.090 -16.156  1.00  0.00    +0.160 C 
BRANCH  24  25
ATOM     25  C   UNL     1       7.764 -43.819 -17.669  1.00  0.00    +0.029 C 
BRANCH  25  26
ATOM     26  C   UNL     1       8.185 -45.061 -18.472  1.00  0.00    +0.009 C 
BRANCH  26  27
ATOM     27  C   UNL     1       8.554 -44.729 -19.930  1.00  0.00    +0.056 C 
BRANCH  27  28
ATOM     28  C   UNL     1       7.497 -45.334 -20.867  1.00  0.00    +0.043 A 
ATOM     29  C   UNL     1       7.200 -46.702 -20.809  1.00  0.00    +0.024 A 
ATOM     30  N   UNL     1       6.854 -44.531 -21.729  1.00  0.00    -0.233 NA
ATOM     31  C   UNL     1       6.222 -47.226 -21.668  1.00  0.00    +0.009 A 
ATOM     32  C   UNL     1       5.899 -45.005 -22.568  1.00  0.00    +0.154 A 
ATOM     33  C   UNL     1       5.571 -46.365 -22.562  1.00  0.00    -0.003 A 
ATOM     34  N   UNL     1       5.247 -44.015 -23.493  1.00  0.00    -0.241 NA
ATOM     35  C   UNL     1       4.485 -46.875 -23.522  1.00  0.00    +0.045 C 
ATOM     36  C   UNL     1       3.951 -44.437 -24.134  1.00  0.00    +0.086 C 
ATOM     37  C   UNL     1       3.392 -45.809 -23.708  1.00  0.00    +0.053 C 
ENDBRANCH  27  28
ENDBRANCH  26  27
ENDBRANCH  25  26
ENDBRANCH  24  25
ENDBRANCH   1  24
TORSDOF 10
ENDMDL
