MODEL 1
REMARK VINA RESULT:    -8.639      0.000      0.000
REMARK INTER + INTRA:         -15.462
REMARK INTER:                 -14.194
REMARK INTRA:                  -1.267
REMARK UNBOUND:                -1.267
REMARK SMILES O=C(CCCCc1ccc2c(n1)NCCC2)NCC[C@H](NC(=O)c1nc2ccccc2s1)C(=O)[O-]
REMARK SMILES IDX 2 1 17 2 1 3 3 5 4 6 5 7 6 8 7 9 8 10 12 11 9 12 11 13 10 14
REMARK SMILES IDX 13 15 16 16 14 17 15 18 18 20 19 21 20 22 33 23 34 24 35 25
REMARK SMILES IDX 21 26 22 27 23 28 24 30 32 31 25 32 31 33 26 34 30 35 27 36
REMARK SMILES IDX 29 37 28 38
REMARK H PARENT 17 4 13 19 21 29
ROOT
ATOM      1  C   UNL     1      18.602  40.923  40.641  1.00  0.00    +0.219 C 
ATOM      2  N   UNL     1      19.270  40.476  39.495  1.00  0.00    -0.356 N 
ATOM      3  O   UNL     1      18.037  40.080  41.361  1.00  0.00    -0.275 OA
ATOM      4  H   UNL     1      19.749  41.156  38.888  1.00  0.00    +0.163 HD
ENDROOT
BRANCH   1   5
ATOM      5  C   UNL     1      18.577  42.362  41.028  1.00  0.00    +0.100 C 
BRANCH   5   6
ATOM      6  C   UNL     1      17.564  43.165  40.188  1.00  0.00    +0.010 C 
BRANCH   6   7
ATOM      7  C   UNL     1      16.545  43.990  40.963  1.00  0.00    +0.007 C 
BRANCH   7   8
ATOM      8  C   UNL     1      16.457  43.549  42.439  1.00  0.00    +0.056 C 
BRANCH   8   9
ATOM      9  C   UNL     1      15.325  42.533  42.732  1.00  0.00    +0.043 A 
ATOM     10  C   UNL     1      13.996  43.003  42.769  1.00  0.00    +0.024 A 
ATOM     11  N   UNL     1      15.592  41.229  42.932  1.00  0.00    -0.236 NA
ATOM     12  C   UNL     1      12.945  42.097  43.030  1.00  0.00    +0.009 A 
ATOM     13  C   UNL     1      14.580  40.334  43.191  1.00  0.00    +0.129 A 
ATOM     14  C   UNL     1      13.217  40.721  43.250  1.00  0.00    -0.005 A 
ATOM     15  N   UNL     1      14.967  38.947  43.393  1.00  0.00    -0.370 N 
ATOM     16  C   UNL     1      12.113  39.744  43.525  1.00  0.00    +0.041 C 
ATOM     17  C   UNL     1      14.052  38.127  44.192  1.00  0.00    +0.115 C 
ATOM     18  C   UNL     1      12.544  38.278  43.861  1.00  0.00    +0.026 C 
ATOM     19  H   UNL     1      15.836  38.562  42.996  1.00  0.00    +0.162 HD
ENDBRANCH   8   9
ENDBRANCH   7   8
ENDBRANCH   6   7
ENDBRANCH   5   6
ENDBRANCH   1   5
BRANCH   2  20
ATOM     20  C   UNL     1      19.296  39.091  39.159  1.00  0.00    +0.118 C 
BRANCH  20  21
ATOM     21  C   UNL     1      20.656  38.473  39.449  1.00  0.00    +0.052 C 
BRANCH  21  22
ATOM     22  C   UNL     1      20.809  38.236  40.948  1.00  0.00    +0.130 C 
BRANCH  22  23
ATOM     23  C   UNL     1      20.111  36.881  41.315  1.00  0.00    +0.064 C 
ATOM     24  O   UNL     1      20.743  35.771  41.180  1.00  0.00    -0.548 OA
ATOM     25  O   UNL     1      18.909  36.926  41.756  1.00  0.00    -0.548 OA
ENDBRANCH  22  23
BRANCH  22  26
ATOM     26  N   UNL     1      22.207  38.232  41.408  1.00  0.00    -0.342 N 
ATOM     27  C   UNL     1      22.823  39.355  41.959  1.00  0.00    +0.280 C 
ATOM     28  O   UNL     1      22.291  40.464  42.054  1.00  0.00    -0.267 OA
ATOM     29  H   UNL     1      22.753  37.364  41.319  1.00  0.00    +0.164 HD
BRANCH  27  30
ATOM     30  C   UNL     1      24.279  39.253  42.445  1.00  0.00    +0.182 A 
ATOM     31  S   UNL     1      24.858  39.393  44.163  1.00  0.00    -0.109 S 
ATOM     32  N   UNL     1      25.332  38.996  41.653  1.00  0.00    -0.231 NA
ATOM     33  C   UNL     1      26.571  39.121  43.707  1.00  0.00    +0.055 A 
ATOM     34  C   UNL     1      26.593  38.931  42.317  1.00  0.00    +0.082 A 
ATOM     35  C   UNL     1      27.764  39.076  44.453  1.00  0.00    +0.021 A 
ATOM     36  C   UNL     1      27.836  38.688  41.664  1.00  0.00    +0.030 A 
ATOM     37  C   UNL     1      28.995  38.836  43.801  1.00  0.00    +0.002 A 
ATOM     38  C   UNL     1      29.033  38.640  42.398  1.00  0.00    +0.002 A 
ENDBRANCH  27  30
ENDBRANCH  22  26
ENDBRANCH  21  22
ENDBRANCH  20  21
ENDBRANCH   2  20
TORSDOF 11
ENDMDL
MODEL 2
REMARK VINA RESULT:    -8.544      5.607      8.757
REMARK INTER + INTRA:         -15.305
REMARK INTER:                 -13.750
REMARK INTRA:                  -1.556
REMARK UNBOUND:                -1.267
REMARK SMILES O=C(CCCCc1ccc2c(n1)NCCC2)NCC[C@H](NC(=O)c1nc2ccccc2s1)C(=O)[O-]
REMARK SMILES IDX 2 1 17 2 1 3 3 5 4 6 5 7 6 8 7 9 8 10 12 11 9 12 11 13 10 14
REMARK SMILES IDX 13 15 16 16 14 17 15 18 18 20 19 21 20 22 33 23 34 24 35 25
REMARK SMILES IDX 21 26 22 27 23 28 24 30 32 31 25 32 31 33 26 34 30 35 27 36
REMARK SMILES IDX 29 37 28 38
REMARK H PARENT 17 4 13 19 21 29
ROOT
ATOM      1  C   UNL     1      19.127  40.402  40.494  1.00  0.00    +0.219 C 
ATOM      2  N   UNL     1      20.436  40.884  40.597  1.00  0.00    -0.356 N 
ATOM      3  O   UNL     1      18.204  41.095  40.959  1.00  0.00    -0.275 OA
ATOM      4  H   UNL     1      21.215  40.329  40.215  1.00  0.00    +0.163 HD
ENDROOT
BRANCH   1   5
ATOM      5  C   UNL     1      18.813  39.108  39.824  1.00  0.00    +0.100 C 
BRANCH   5   6
ATOM      6  C   UNL     1      19.874  38.736  38.768  1.00  0.00    +0.010 C 
BRANCH   6   7
ATOM      7  C   UNL     1      20.810  37.590  39.124  1.00  0.00    +0.007 C 
BRANCH   7   8
ATOM      8  C   UNL     1      20.640  37.147  40.592  1.00  0.00    +0.056 C 
BRANCH   8   9
ATOM      9  C   UNL     1      21.796  37.586  41.526  1.00  0.00    +0.043 A 
ATOM     10  C   UNL     1      22.845  38.350  40.978  1.00  0.00    +0.024 A 
ATOM     11  N   UNL     1      21.797  37.265  42.834  1.00  0.00    -0.236 NA
ATOM     12  C   UNL     1      23.909  38.766  41.808  1.00  0.00    +0.009 A 
ATOM     13  C   UNL     1      22.827  37.660  43.655  1.00  0.00    +0.129 A 
ATOM     14  C   UNL     1      23.924  38.426  43.186  1.00  0.00    -0.005 A 
ATOM     15  N   UNL     1      22.740  37.265  45.052  1.00  0.00    -0.370 N 
ATOM     16  C   UNL     1      25.044  38.863  44.084  1.00  0.00    +0.041 C 
ATOM     17  C   UNL     1      24.008  37.169  45.781  1.00  0.00    +0.115 C 
ATOM     18  C   UNL     1      25.007  38.334  45.556  1.00  0.00    +0.026 C 
ATOM     19  H   UNL     1      21.837  37.065  45.505  1.00  0.00    +0.162 HD
ENDBRANCH   8   9
ENDBRANCH   7   8
ENDBRANCH   6   7
ENDBRANCH   5   6
ENDBRANCH   1   5
BRANCH   2  20
ATOM     20  C   UNL     1      20.706  42.135  41.226  1.00  0.00    +0.118 C 
BRANCH  20  21
ATOM     21  C   UNL     1      21.145  43.183  40.214  1.00  0.00    +0.052 C 
BRANCH  21  22
ATOM     22  C   UNL     1      22.566  43.642  40.525  1.00  0.00    +0.130 C 
BRANCH  22  23
ATOM     23  C   UNL     1      23.468  42.376  40.728  1.00  0.00    +0.064 C 
ATOM     24  O   UNL     1      23.590  41.511  39.785  1.00  0.00    -0.548 OA
ATOM     25  O   UNL     1      24.076  42.245  41.848  1.00  0.00    -0.548 OA
ENDBRANCH  22  23
BRANCH  22  26
ATOM     26  N   UNL     1      23.143  44.522  39.497  1.00  0.00    -0.342 N 
ATOM     27  C   UNL     1      24.231  45.358  39.744  1.00  0.00    +0.280 C 
ATOM     28  O   UNL     1      24.768  45.494  40.847  1.00  0.00    -0.267 OA
ATOM     29  H   UNL     1      22.726  44.520  38.556  1.00  0.00    +0.164 HD
BRANCH  27  30
ATOM     30  C   UNL     1      24.792  46.222  38.601  1.00  0.00    +0.182 A 
ATOM     31  S   UNL     1      26.543  46.413  38.149  1.00  0.00    -0.109 S 
ATOM     32  N   UNL     1      24.043  46.928  37.740  1.00  0.00    -0.231 NA
ATOM     33  C   UNL     1      26.168  47.511  36.782  1.00  0.00    +0.055 A 
ATOM     34  C   UNL     1      24.772  47.648  36.747  1.00  0.00    +0.082 A 
ATOM     35  C   UNL     1      26.975  48.181  35.843  1.00  0.00    +0.021 A 
ATOM     36  C   UNL     1      24.176  48.473  35.748  1.00  0.00    +0.030 A 
ATOM     37  C   UNL     1      26.380  49.000  34.856  1.00  0.00    +0.002 A 
ATOM     38  C   UNL     1      24.971  49.146  34.807  1.00  0.00    +0.002 A 
ENDBRANCH  27  30
ENDBRANCH  22  26
ENDBRANCH  21  22
ENDBRANCH  20  21
ENDBRANCH   2  20
TORSDOF 11
ENDMDL
MODEL 3
REMARK VINA RESULT:    -8.479      0.527      0.750
REMARK INTER + INTRA:         -15.199
REMARK INTER:                 -14.185
REMARK INTRA:                  -1.014
REMARK UNBOUND:                -1.267
REMARK SMILES O=C(CCCCc1ccc2c(n1)NCCC2)NCC[C@H](NC(=O)c1nc2ccccc2s1)C(=O)[O-]
REMARK SMILES IDX 2 1 17 2 1 3 3 5 4 6 5 7 6 8 7 9 8 10 12 11 9 12 11 13 10 14
REMARK SMILES IDX 13 15 16 16 14 17 15 18 18 20 19 21 20 22 33 23 34 24 35 25
REMARK SMILES IDX 21 26 22 27 23 28 24 30 32 31 25 32 31 33 26 34 30 35 27 36
REMARK SMILES IDX 29 37 28 38
REMARK H PARENT 17 4 13 19 21 29
ROOT
ATOM      1  C   UNL     1      18.390  41.400  40.544  1.00  0.00    +0.219 C 
ATOM      2  N   UNL     1      19.089  40.714  39.546  1.00  0.00    -0.356 N 
ATOM      3  O   UNL     1      17.835  40.738  41.439  1.00  0.00    -0.275 OA
ATOM      4  H   UNL     1      19.560  41.243  38.798  1.00  0.00    +0.163 HD
ENDROOT
BRANCH   1   5
ATOM      5  C   UNL     1      18.320  42.890  40.577  1.00  0.00    +0.100 C 
BRANCH   5   6
ATOM      6  C   UNL     1      16.864  43.396  40.580  1.00  0.00    +0.010 C 
BRANCH   6   7
ATOM      7  C   UNL     1      16.600  44.692  41.334  1.00  0.00    +0.007 C 
BRANCH   7   8
ATOM      8  C   UNL     1      16.075  44.428  42.760  1.00  0.00    +0.056 C 
BRANCH   8   9
ATOM      9  C   UNL     1      15.138  43.200  42.875  1.00  0.00    +0.043 A 
ATOM     10  C   UNL     1      13.794  43.343  42.477  1.00  0.00    +0.024 A 
ATOM     11  N   UNL     1      15.593  42.015  43.326  1.00  0.00    -0.236 NA
ATOM     12  C   UNL     1      12.920  42.237  42.568  1.00  0.00    +0.009 A 
ATOM     13  C   UNL     1      14.754  40.930  43.424  1.00  0.00    +0.129 A 
ATOM     14  C   UNL     1      13.387  40.987  43.050  1.00  0.00    -0.005 A 
ATOM     15  N   UNL     1      15.336  39.694  43.923  1.00  0.00    -0.370 N 
ATOM     16  C   UNL     1      12.475  39.801  43.150  1.00  0.00    +0.041 C 
ATOM     17  C   UNL     1      14.411  38.746  44.549  1.00  0.00    +0.115 C 
ATOM     18  C   UNL     1      13.074  38.509  43.800  1.00  0.00    +0.026 C 
ATOM     19  H   UNL     1      16.344  39.495  43.840  1.00  0.00    +0.162 HD
ENDBRANCH   8   9
ENDBRANCH   7   8
ENDBRANCH   6   7
ENDBRANCH   5   6
ENDBRANCH   1   5
BRANCH   2  20
ATOM     20  C   UNL     1      19.157  39.290  39.550  1.00  0.00    +0.118 C 
BRANCH  20  21
ATOM     21  C   UNL     1      20.573  38.801  39.817  1.00  0.00    +0.052 C 
BRANCH  21  22
ATOM     22  C   UNL     1      20.702  38.352  41.269  1.00  0.00    +0.130 C 
BRANCH  22  23
ATOM     23  C   UNL     1      20.027  36.945  41.420  1.00  0.00    +0.064 C 
ATOM     24  O   UNL     1      18.845  36.845  41.914  1.00  0.00    -0.548 OA
ATOM     25  O   UNL     1      20.686  35.918  41.028  1.00  0.00    -0.548 OA
ENDBRANCH  22  23
BRANCH  22  26
ATOM     26  N   UNL     1      22.090  38.309  41.756  1.00  0.00    -0.342 N 
ATOM     27  C   UNL     1      22.895  39.443  41.843  1.00  0.00    +0.280 C 
ATOM     28  O   UNL     1      22.556  40.568  41.463  1.00  0.00    -0.267 OA
ATOM     29  H   UNL     1      22.482  37.402  42.045  1.00  0.00    +0.164 HD
BRANCH  27  30
ATOM     30  C   UNL     1      24.325  39.312  42.395  1.00  0.00    +0.182 A 
ATOM     31  S   UNL     1      24.817  39.362  44.144  1.00  0.00    -0.109 S 
ATOM     32  N   UNL     1      25.416  39.094  41.644  1.00  0.00    -0.231 NA
ATOM     33  C   UNL     1      26.550  39.109  43.762  1.00  0.00    +0.055 A 
ATOM     34  C   UNL     1      26.642  38.990  42.366  1.00  0.00    +0.082 A 
ATOM     35  C   UNL     1      27.705  39.021  44.563  1.00  0.00    +0.021 A 
ATOM     36  C   UNL     1      27.917  38.777  41.765  1.00  0.00    +0.030 A 
ATOM     37  C   UNL     1      28.967  38.811  43.962  1.00  0.00    +0.002 A 
ATOM     38  C   UNL     1      29.075  38.688  42.555  1.00  0.00    +0.002 A 
ENDBRANCH  27  30
ENDBRANCH  22  26
ENDBRANCH  21  22
ENDBRANCH  20  21
ENDBRANCH   2  20
TORSDOF 11
ENDMDL
MODEL 4
REMARK VINA RESULT:    -8.474      4.245      7.247
REMARK INTER + INTRA:         -15.190
REMARK INTER:                 -13.976
REMARK INTRA:                  -1.215
REMARK UNBOUND:                -1.267
REMARK SMILES O=C(CCCCc1ccc2c(n1)NCCC2)NCC[C@H](NC(=O)c1nc2ccccc2s1)C(=O)[O-]
REMARK SMILES IDX 2 1 17 2 1 3 3 5 4 6 5 7 6 8 7 9 8 10 12 11 9 12 11 13 10 14
REMARK SMILES IDX 13 15 16 16 14 17 15 18 18 20 19 21 20 22 33 23 34 24 35 25
REMARK SMILES IDX 21 26 22 27 23 28 24 30 32 31 25 32 31 33 26 34 30 35 27 36
REMARK SMILES IDX 29 37 28 38
REMARK H PARENT 17 4 13 19 21 29
ROOT
ATOM      1  C   UNL     1      19.073  41.795  40.729  1.00  0.00    +0.219 C 
ATOM      2  N   UNL     1      19.816  40.990  39.859  1.00  0.00    -0.356 N 
ATOM      3  O   UNL     1      18.057  41.309  41.259  1.00  0.00    -0.275 OA
ATOM      4  H   UNL     1      20.664  41.370  39.413  1.00  0.00    +0.163 HD
ENDROOT
BRANCH   1   5
ATOM      5  C   UNL     1      19.480  43.192  41.054  1.00  0.00    +0.100 C 
BRANCH   5   6
ATOM      6  C   UNL     1      20.988  43.418  40.829  1.00  0.00    +0.010 C 
BRANCH   6   7
ATOM      7  C   UNL     1      21.865  43.424  42.074  1.00  0.00    +0.007 C 
BRANCH   7   8
ATOM      8  C   UNL     1      23.358  43.580  41.721  1.00  0.00    +0.056 C 
BRANCH   8   9
ATOM      9  C   UNL     1      23.703  44.900  40.987  1.00  0.00    +0.043 A 
ATOM     10  C   UNL     1      23.780  46.086  41.744  1.00  0.00    +0.024 A 
ATOM     11  N   UNL     1      23.943  44.920  39.662  1.00  0.00    -0.236 NA
ATOM     12  C   UNL     1      24.097  47.302  41.100  1.00  0.00    +0.009 A 
ATOM     13  C   UNL     1      24.249  46.097  39.020  1.00  0.00    +0.129 A 
ATOM     14  C   UNL     1      24.343  47.336  39.703  1.00  0.00    -0.005 A 
ATOM     15  N   UNL     1      24.491  46.019  37.588  1.00  0.00    -0.370 N 
ATOM     16  C   UNL     1      24.685  48.618  39.003  1.00  0.00    +0.041 C 
ATOM     17  C   UNL     1      24.261  47.246  36.822  1.00  0.00    +0.115 C 
ATOM     18  C   UNL     1      24.824  48.549  37.446  1.00  0.00    +0.026 C 
ATOM     19  H   UNL     1      24.808  45.148  37.137  1.00  0.00    +0.162 HD
ENDBRANCH   8   9
ENDBRANCH   7   8
ENDBRANCH   6   7
ENDBRANCH   5   6
ENDBRANCH   1   5
BRANCH   2  20
ATOM     20  C   UNL     1      19.416  39.651  39.581  1.00  0.00    +0.118 C 
BRANCH  20  21
ATOM     21  C   UNL     1      20.540  38.664  39.861  1.00  0.00    +0.052 C 
BRANCH  21  22
ATOM     22  C   UNL     1      20.611  38.369  41.355  1.00  0.00    +0.130 C 
BRANCH  22  23
ATOM     23  C   UNL     1      19.894  37.002  41.631  1.00  0.00    +0.064 C 
ATOM     24  O   UNL     1      18.789  36.973  42.286  1.00  0.00    -0.548 OA
ATOM     25  O   UNL     1      20.439  35.935  41.175  1.00  0.00    -0.548 OA
ENDBRANCH  22  23
BRANCH  22  26
ATOM     26  N   UNL     1      21.981  38.344  41.891  1.00  0.00    -0.342 N 
ATOM     27  C   UNL     1      22.935  39.310  41.570  1.00  0.00    +0.280 C 
ATOM     28  O   UNL     1      22.752  40.228  40.767  1.00  0.00    -0.267 OA
ATOM     29  H   UNL     1      22.247  37.581  42.529  1.00  0.00    +0.164 HD
BRANCH  27  30
ATOM     30  C   UNL     1      24.335  39.225  42.202  1.00  0.00    +0.182 A 
ATOM     31  S   UNL     1      24.730  39.331  43.974  1.00  0.00    -0.109 S 
ATOM     32  N   UNL     1      25.469  39.011  41.517  1.00  0.00    -0.231 NA
ATOM     33  C   UNL     1      26.486  39.107  43.692  1.00  0.00    +0.055 A 
ATOM     34  C   UNL     1      26.656  38.955  42.307  1.00  0.00    +0.082 A 
ATOM     35  C   UNL     1      27.597  39.066  44.557  1.00  0.00    +0.021 A 
ATOM     36  C   UNL     1      27.966  38.755  41.782  1.00  0.00    +0.030 A 
ATOM     37  C   UNL     1      28.894  38.870  44.031  1.00  0.00    +0.002 A 
ATOM     38  C   UNL     1      29.081  38.712  42.635  1.00  0.00    +0.002 A 
ENDBRANCH  27  30
ENDBRANCH  22  26
ENDBRANCH  21  22
ENDBRANCH  20  21
ENDBRANCH   2  20
TORSDOF 11
ENDMDL
MODEL 5
REMARK VINA RESULT:    -8.372      1.557      2.057
REMARK INTER + INTRA:         -15.024
REMARK INTER:                 -13.900
REMARK INTRA:                  -1.124
REMARK UNBOUND:                -1.267
REMARK SMILES O=C(CCCCc1ccc2c(n1)NCCC2)NCC[C@H](NC(=O)c1nc2ccccc2s1)C(=O)[O-]
REMARK SMILES IDX 2 1 17 2 1 3 3 5 4 6 5 7 6 8 7 9 8 10 12 11 9 12 11 13 10 14
REMARK SMILES IDX 13 15 16 16 14 17 15 18 18 20 19 21 20 22 33 23 34 24 35 25
REMARK SMILES IDX 21 26 22 27 23 28 24 30 32 31 25 32 31 33 26 34 30 35 27 36
REMARK SMILES IDX 29 37 28 38
REMARK H PARENT 17 4 13 19 21 29
ROOT
ATOM      1  C   UNL     1      18.316  41.053  41.174  1.00  0.00    +0.219 C 
ATOM      2  N   UNL     1      19.184  40.763  40.115  1.00  0.00    -0.356 N 
ATOM      3  O   UNL     1      17.522  40.170  41.544  1.00  0.00    -0.275 OA
ATOM      4  H   UNL     1      19.854  41.478  39.796  1.00  0.00    +0.163 HD
ENDROOT
BRANCH   1   5
ATOM      5  C   UNL     1      18.340  42.368  41.877  1.00  0.00    +0.100 C 
BRANCH   5   6
ATOM      6  C   UNL     1      17.945  43.527  40.941  1.00  0.00    +0.010 C 
BRANCH   6   7
ATOM      7  C   UNL     1      16.853  44.460  41.445  1.00  0.00    +0.007 C 
BRANCH   7   8
ATOM      8  C   UNL     1      15.465  44.062  40.902  1.00  0.00    +0.056 C 
BRANCH   8   9
ATOM      9  C   UNL     1      14.537  43.401  41.951  1.00  0.00    +0.043 A 
ATOM     10  C   UNL     1      15.094  42.455  42.835  1.00  0.00    +0.024 A 
ATOM     11  N   UNL     1      13.234  43.728  42.036  1.00  0.00    -0.236 NA
ATOM     12  C   UNL     1      14.272  41.840  43.805  1.00  0.00    +0.009 A 
ATOM     13  C   UNL     1      12.419  43.136  42.973  1.00  0.00    +0.129 A 
ATOM     14  C   UNL     1      12.895  42.172  43.897  1.00  0.00    -0.005 A 
ATOM     15  N   UNL     1      11.025  43.554  42.987  1.00  0.00    -0.370 N 
ATOM     16  C   UNL     1      12.007  41.532  44.923  1.00  0.00    +0.041 C 
ATOM     17  C   UNL     1      10.065  42.594  43.537  1.00  0.00    +0.115 C 
ATOM     18  C   UNL     1      10.486  41.895  44.855  1.00  0.00    +0.026 C 
ATOM     19  H   UNL     1      10.731  44.475  42.631  1.00  0.00    +0.162 HD
ENDBRANCH   8   9
ENDBRANCH   7   8
ENDBRANCH   6   7
ENDBRANCH   5   6
ENDBRANCH   1   5
BRANCH   2  20
ATOM     20  C   UNL     1      19.154  39.491  39.474  1.00  0.00    +0.118 C 
BRANCH  20  21
ATOM     21  C   UNL     1      20.475  38.753  39.637  1.00  0.00    +0.052 C 
BRANCH  21  22
ATOM     22  C   UNL     1      20.674  38.364  41.099  1.00  0.00    +0.130 C 
BRANCH  22  23
ATOM     23  C   UNL     1      20.005  36.967  41.341  1.00  0.00    +0.064 C 
ATOM     24  O   UNL     1      18.766  36.892  41.674  1.00  0.00    -0.548 OA
ATOM     25  O   UNL     1      20.728  35.920  41.186  1.00  0.00    -0.548 OA
ENDBRANCH  22  23
BRANCH  22  26
ATOM     26  N   UNL     1      22.083  38.336  41.518  1.00  0.00    -0.342 N 
ATOM     27  C   UNL     1      22.725  39.437  42.085  1.00  0.00    +0.280 C 
ATOM     28  O   UNL     1      22.205  40.547  42.228  1.00  0.00    -0.267 OA
ATOM     29  H   UNL     1      22.619  37.466  41.388  1.00  0.00    +0.164 HD
BRANCH  27  30
ATOM     30  C   UNL     1      24.193  39.308  42.526  1.00  0.00    +0.182 A 
ATOM     31  S   UNL     1      24.828  39.444  44.224  1.00  0.00    -0.109 S 
ATOM     32  N   UNL     1      25.215  39.029  41.702  1.00  0.00    -0.231 NA
ATOM     33  C   UNL     1      26.520  39.138  43.717  1.00  0.00    +0.055 A 
ATOM     34  C   UNL     1      26.495  38.943  42.327  1.00  0.00    +0.082 A 
ATOM     35  C   UNL     1      27.735  39.072  44.425  1.00  0.00    +0.021 A 
ATOM     36  C   UNL     1      27.713  38.674  41.637  1.00  0.00    +0.030 A 
ATOM     37  C   UNL     1      28.941  38.807  43.737  1.00  0.00    +0.002 A 
ATOM     38  C   UNL     1      28.931  38.606  42.334  1.00  0.00    +0.002 A 
ENDBRANCH  27  30
ENDBRANCH  22  26
ENDBRANCH  21  22
ENDBRANCH  20  21
ENDBRANCH   2  20
TORSDOF 11
ENDMDL
MODEL 6
REMARK VINA RESULT:    -8.299      3.758      7.198
REMARK INTER + INTRA:         -14.904
REMARK INTER:                 -12.196
REMARK INTRA:                  -2.708
REMARK UNBOUND:                -1.267
REMARK SMILES O=C(CCCCc1ccc2c(n1)NCCC2)NCC[C@H](NC(=O)c1nc2ccccc2s1)C(=O)[O-]
REMARK SMILES IDX 2 1 17 2 1 3 3 5 4 6 5 7 6 8 7 9 8 10 12 11 9 12 11 13 10 14
REMARK SMILES IDX 13 15 16 16 14 17 15 18 18 20 19 21 20 22 33 23 34 24 35 25
REMARK SMILES IDX 21 26 22 27 23 28 24 30 32 31 25 32 31 33 26 34 30 35 27 36
REMARK SMILES IDX 29 37 28 38
REMARK H PARENT 17 4 13 19 21 29
ROOT
ATOM      1  C   UNL     1      18.930  42.052  40.640  1.00  0.00    +0.219 C 
ATOM      2  N   UNL     1      20.303  41.782  40.615  1.00  0.00    -0.356 N 
ATOM      3  O   UNL     1      18.151  41.196  40.185  1.00  0.00    -0.275 OA
ATOM      4  H   UNL     1      20.965  42.476  40.991  1.00  0.00    +0.163 HD
ENDROOT
BRANCH   1   5
ATOM      5  C   UNL     1      18.385  43.314  41.219  1.00  0.00    +0.100 C 
BRANCH   5   6
ATOM      6  C   UNL     1      17.045  43.712  40.569  1.00  0.00    +0.010 C 
BRANCH   6   7
ATOM      7  C   UNL     1      15.960  44.218  41.510  1.00  0.00    +0.007 C 
BRANCH   7   8
ATOM      8  C   UNL     1      14.554  43.780  41.051  1.00  0.00    +0.056 C 
BRANCH   8   9
ATOM      9  C   UNL     1      13.594  43.411  42.209  1.00  0.00    +0.043 A 
ATOM     10  C   UNL     1      14.142  42.856  43.382  1.00  0.00    +0.024 A 
ATOM     11  N   UNL     1      12.268  43.629  42.113  1.00  0.00    -0.236 NA
ATOM     12  C   UNL     1      13.289  42.514  44.455  1.00  0.00    +0.009 A 
ATOM     13  C   UNL     1      11.423  43.298  43.147  1.00  0.00    +0.129 A 
ATOM     14  C   UNL     1      11.890  42.731  44.360  1.00  0.00    -0.005 A 
ATOM     15  N   UNL     1      10.008  43.570  42.950  1.00  0.00    -0.370 N 
ATOM     16  C   UNL     1      10.969  42.379  45.491  1.00  0.00    +0.041 C 
ATOM     17  C   UNL     1       9.075  42.756  43.732  1.00  0.00    +0.115 C 
ATOM     18  C   UNL     1       9.437  42.560  45.228  1.00  0.00    +0.026 C 
ATOM     19  H   UNL     1       9.680  44.296  42.297  1.00  0.00    +0.162 HD
ENDBRANCH   8   9
ENDBRANCH   7   8
ENDBRANCH   6   7
ENDBRANCH   5   6
ENDBRANCH   1   5
BRANCH   2  20
ATOM     20  C   UNL     1      20.796  40.559  40.074  1.00  0.00    +0.118 C 
BRANCH  20  21
ATOM     21  C   UNL     1      21.116  39.554  41.171  1.00  0.00    +0.052 C 
BRANCH  21  22
ATOM     22  C   UNL     1      20.139  38.384  41.104  1.00  0.00    +0.130 C 
BRANCH  22  23
ATOM     23  C   UNL     1      20.888  37.080  41.546  1.00  0.00    +0.064 C 
ATOM     24  O   UNL     1      20.468  35.930  41.157  1.00  0.00    -0.548 OA
ATOM     25  O   UNL     1      21.924  37.206  42.290  1.00  0.00    -0.548 OA
ENDBRANCH  22  23
BRANCH  22  26
ATOM     26  N   UNL     1      18.926  38.577  41.914  1.00  0.00    -0.342 N 
ATOM     27  C   UNL     1      17.681  38.073  41.541  1.00  0.00    +0.280 C 
ATOM     28  O   UNL     1      17.459  37.484  40.480  1.00  0.00    -0.267 OA
ATOM     29  H   UNL     1      19.000  39.107  42.794  1.00  0.00    +0.164 HD
BRANCH  27  30
ATOM     30  C   UNL     1      16.471  38.294  42.465  1.00  0.00    +0.182 A 
ATOM     31  S   UNL     1      16.502  38.402  44.280  1.00  0.00    -0.109 S 
ATOM     32  N   UNL     1      15.212  38.484  42.041  1.00  0.00    -0.231 NA
ATOM     33  C   UNL     1      14.734  38.677  44.388  1.00  0.00    +0.055 A 
ATOM     34  C   UNL     1      14.246  38.684  43.072  1.00  0.00    +0.082 A 
ATOM     35  C   UNL     1      13.859  38.866  45.475  1.00  0.00    +0.021 A 
ATOM     36  C   UNL     1      12.854  38.887  42.845  1.00  0.00    +0.030 A 
ATOM     37  C   UNL     1      12.479  39.065  45.245  1.00  0.00    +0.002 A 
ATOM     38  C   UNL     1      11.972  39.077  43.922  1.00  0.00    +0.002 A 
ENDBRANCH  27  30
ENDBRANCH  22  26
ENDBRANCH  21  22
ENDBRANCH  20  21
ENDBRANCH   2  20
TORSDOF 11
ENDMDL
MODEL 7
REMARK VINA RESULT:    -8.251      3.380     12.345
REMARK INTER + INTRA:         -14.824
REMARK INTER:                 -13.974
REMARK INTRA:                  -0.849
REMARK UNBOUND:                -1.267
REMARK SMILES O=C(CCCCc1ccc2c(n1)NCCC2)NCC[C@H](NC(=O)c1nc2ccccc2s1)C(=O)[O-]
REMARK SMILES IDX 2 1 17 2 1 3 3 5 4 6 5 7 6 8 7 9 8 10 12 11 9 12 11 13 10 14
REMARK SMILES IDX 13 15 16 16 14 17 15 18 18 20 19 21 20 22 33 23 34 24 35 25
REMARK SMILES IDX 21 26 22 27 23 28 24 30 32 31 25 32 31 33 26 34 30 35 27 36
REMARK SMILES IDX 29 37 28 38
REMARK H PARENT 17 4 13 19 21 29
ROOT
ATOM      1  C   UNL     1      25.330  39.525  41.942  1.00  0.00    +0.219 C 
ATOM      2  N   UNL     1      24.386  38.652  41.389  1.00  0.00    -0.356 N 
ATOM      3  O   UNL     1      25.187  40.746  41.754  1.00  0.00    -0.275 OA
ATOM      4  H   UNL     1      24.483  37.637  41.536  1.00  0.00    +0.163 HD
ENDROOT
BRANCH   1   5
ATOM      5  C   UNL     1      26.473  39.032  42.763  1.00  0.00    +0.100 C 
BRANCH   5   6
ATOM      6  C   UNL     1      27.721  38.753  41.903  1.00  0.00    +0.010 C 
BRANCH   6   7
ATOM      7  C   UNL     1      29.047  38.655  42.645  1.00  0.00    +0.007 C 
BRANCH   7   8
ATOM      8  C   UNL     1      28.878  38.921  44.156  1.00  0.00    +0.056 C 
BRANCH   8   9
ATOM      9  C   UNL     1      30.162  38.686  44.990  1.00  0.00    +0.043 A 
ATOM     10  C   UNL     1      30.765  39.794  45.617  1.00  0.00    +0.024 A 
ATOM     11  N   UNL     1      30.685  37.453  45.133  1.00  0.00    -0.236 NA
ATOM     12  C   UNL     1      31.934  39.606  46.387  1.00  0.00    +0.009 A 
ATOM     13  C   UNL     1      31.826  37.254  45.876  1.00  0.00    +0.129 A 
ATOM     14  C   UNL     1      32.499  38.313  46.537  1.00  0.00    -0.005 A 
ATOM     15  N   UNL     1      32.316  35.888  45.972  1.00  0.00    -0.370 N 
ATOM     16  C   UNL     1      33.737  38.094  47.354  1.00  0.00    +0.041 C 
ATOM     17  C   UNL     1      33.746  35.729  46.246  1.00  0.00    +0.115 C 
ATOM     18  C   UNL     1      34.328  36.645  47.354  1.00  0.00    +0.026 C 
ATOM     19  H   UNL     1      31.692  35.077  45.854  1.00  0.00    +0.162 HD
ENDBRANCH   8   9
ENDBRANCH   7   8
ENDBRANCH   6   7
ENDBRANCH   5   6
ENDBRANCH   1   5
BRANCH   2  20
ATOM     20  C   UNL     1      23.291  39.151  40.624  1.00  0.00    +0.118 C 
BRANCH  20  21
ATOM     21  C   UNL     1      22.594  38.037  39.858  1.00  0.00    +0.052 C 
BRANCH  21  22
ATOM     22  C   UNL     1      21.146  37.916  40.321  1.00  0.00    +0.130 C 
BRANCH  22  23
ATOM     23  C   UNL     1      21.075  36.858  41.476  1.00  0.00    +0.064 C 
ATOM     24  O   UNL     1      21.672  37.078  42.592  1.00  0.00    -0.548 OA
ATOM     25  O   UNL     1      20.402  35.787  41.268  1.00  0.00    -0.548 OA
ENDBRANCH  22  23
BRANCH  22  26
ATOM     26  N   UNL     1      20.555  39.191  40.759  1.00  0.00    -0.342 N 
ATOM     27  C   UNL     1      19.836  40.023  39.903  1.00  0.00    +0.280 C 
ATOM     28  O   UNL     1      19.682  39.814  38.696  1.00  0.00    -0.267 OA
ATOM     29  H   UNL     1      20.678  39.480  41.740  1.00  0.00    +0.164 HD
BRANCH  27  30
ATOM     30  C   UNL     1      19.224  41.323  40.453  1.00  0.00    +0.182 A 
ATOM     31  S   UNL     1      20.118  42.675  41.277  1.00  0.00    -0.109 S 
ATOM     32  N   UNL     1      17.928  41.657  40.356  1.00  0.00    -0.231 NA
ATOM     33  C   UNL     1      18.632  43.654  41.491  1.00  0.00    +0.055 A 
ATOM     34  C   UNL     1      17.580  42.919  40.924  1.00  0.00    +0.082 A 
ATOM     35  C   UNL     1      18.390  44.911  42.077  1.00  0.00    +0.021 A 
ATOM     36  C   UNL     1      16.260  43.457  40.945  1.00  0.00    +0.030 A 
ATOM     37  C   UNL     1      17.080  45.441  42.097  1.00  0.00    +0.002 A 
ATOM     38  C   UNL     1      16.007  44.711  41.528  1.00  0.00    +0.002 A 
ENDBRANCH  27  30
ENDBRANCH  22  26
ENDBRANCH  21  22
ENDBRANCH  20  21
ENDBRANCH   2  20
TORSDOF 11
ENDMDL
MODEL 8
REMARK VINA RESULT:    -8.174      4.058      5.902
REMARK INTER + INTRA:         -14.698
REMARK INTER:                 -13.920
REMARK INTRA:                  -0.778
REMARK UNBOUND:                -1.267
REMARK SMILES O=C(CCCCc1ccc2c(n1)NCCC2)NCC[C@H](NC(=O)c1nc2ccccc2s1)C(=O)[O-]
REMARK SMILES IDX 2 1 17 2 1 3 3 5 4 6 5 7 6 8 7 9 8 10 12 11 9 12 11 13 10 14
REMARK SMILES IDX 13 15 16 16 14 17 15 18 18 20 19 21 20 22 33 23 34 24 35 25
REMARK SMILES IDX 21 26 22 27 23 28 24 30 32 31 25 32 31 33 26 34 30 35 27 36
REMARK SMILES IDX 29 37 28 38
REMARK H PARENT 17 4 13 19 21 29
ROOT
ATOM      1  C   UNL     1      17.763  42.367  41.000  1.00  0.00    +0.219 C 
ATOM      2  N   UNL     1      18.583  41.704  40.080  1.00  0.00    -0.356 N 
ATOM      3  O   UNL     1      17.298  41.717  41.953  1.00  0.00    -0.275 OA
ATOM      4  H   UNL     1      18.983  42.225  39.287  1.00  0.00    +0.163 HD
ENDROOT
BRANCH   1   5
ATOM      5  C   UNL     1      17.462  43.823  40.882  1.00  0.00    +0.100 C 
BRANCH   5   6
ATOM      6  C   UNL     1      17.684  44.565  42.215  1.00  0.00    +0.010 C 
BRANCH   6   7
ATOM      7  C   UNL     1      16.584  45.526  42.646  1.00  0.00    +0.007 C 
BRANCH   7   8
ATOM      8  C   UNL     1      17.047  46.448  43.793  1.00  0.00    +0.056 C 
BRANCH   8   9
ATOM      9  C   UNL     1      17.040  47.956  43.438  1.00  0.00    +0.043 A 
ATOM     10  C   UNL     1      18.146  48.739  43.825  1.00  0.00    +0.024 A 
ATOM     11  N   UNL     1      16.015  48.509  42.762  1.00  0.00    -0.236 NA
ATOM     12  C   UNL     1      18.166  50.116  43.510  1.00  0.00    +0.009 A 
ATOM     13  C   UNL     1      16.019  49.849  42.452  1.00  0.00    +0.129 A 
ATOM     14  C   UNL     1      17.088  50.711  42.805  1.00  0.00    -0.005 A 
ATOM     15  N   UNL     1      14.868  50.356  41.720  1.00  0.00    -0.370 N 
ATOM     16  C   UNL     1      17.094  52.170  42.459  1.00  0.00    +0.041 C 
ATOM     17  C   UNL     1      14.579  51.784  41.870  1.00  0.00    +0.115 C 
ATOM     18  C   UNL     1      15.802  52.734  41.781  1.00  0.00    +0.026 C 
ATOM     19  H   UNL     1      14.288  49.743  41.128  1.00  0.00    +0.162 HD
ENDBRANCH   8   9
ENDBRANCH   7   8
ENDBRANCH   6   7
ENDBRANCH   5   6
ENDBRANCH   1   5
BRANCH   2  20
ATOM     20  C   UNL     1      18.871  40.316  40.228  1.00  0.00    +0.118 C 
BRANCH  20  21
ATOM     21  C   UNL     1      20.368  40.050  40.175  1.00  0.00    +0.052 C 
BRANCH  21  22
ATOM     22  C   UNL     1      20.736  38.952  41.168  1.00  0.00    +0.130 C 
BRANCH  22  23
ATOM     23  C   UNL     1      20.264  37.574  40.588  1.00  0.00    +0.064 C 
ATOM     24  O   UNL     1      20.509  37.269  39.364  1.00  0.00    -0.548 OA
ATOM     25  O   UNL     1      19.643  36.773  41.373  1.00  0.00    -0.548 OA
ENDBRANCH  22  23
BRANCH  22  26
ATOM     26  N   UNL     1      22.169  38.904  41.497  1.00  0.00    -0.342 N 
ATOM     27  C   UNL     1      22.687  39.406  42.690  1.00  0.00    +0.280 C 
ATOM     28  O   UNL     1      22.019  39.992  43.546  1.00  0.00    -0.267 OA
ATOM     29  H   UNL     1      22.817  38.482  40.817  1.00  0.00    +0.164 HD
BRANCH  27  30
ATOM     30  C   UNL     1      24.195  39.285  42.966  1.00  0.00    +0.182 A 
ATOM     31  S   UNL     1      25.010  39.403  44.587  1.00  0.00    -0.109 S 
ATOM     32  N   UNL     1      25.124  39.027  42.033  1.00  0.00    -0.231 NA
ATOM     33  C   UNL     1      26.639  39.120  43.895  1.00  0.00    +0.055 A 
ATOM     34  C   UNL     1      26.465  38.943  42.513  1.00  0.00    +0.082 A 
ATOM     35  C   UNL     1      27.925  39.055  44.466  1.00  0.00    +0.021 A 
ATOM     36  C   UNL     1      27.602  38.694  41.691  1.00  0.00    +0.030 A 
ATOM     37  C   UNL     1      29.050  38.810  43.646  1.00  0.00    +0.002 A 
ATOM     38  C   UNL     1      28.890  38.628  42.250  1.00  0.00    +0.002 A 
ENDBRANCH  27  30
ENDBRANCH  22  26
ENDBRANCH  21  22
ENDBRANCH  20  21
ENDBRANCH   2  20
TORSDOF 11
ENDMDL
MODEL 9
REMARK VINA RESULT:    -8.174      3.707      7.112
REMARK INTER + INTRA:         -14.698
REMARK INTER:                 -12.004
REMARK INTRA:                  -2.694
REMARK UNBOUND:                -1.267
REMARK SMILES O=C(CCCCc1ccc2c(n1)NCCC2)NCC[C@H](NC(=O)c1nc2ccccc2s1)C(=O)[O-]
REMARK SMILES IDX 2 1 17 2 1 3 3 5 4 6 5 7 6 8 7 9 8 10 12 11 9 12 11 13 10 14
REMARK SMILES IDX 13 15 16 16 14 17 15 18 18 20 19 21 20 22 33 23 34 24 35 25
REMARK SMILES IDX 21 26 22 27 23 28 24 30 32 31 25 32 31 33 26 34 30 35 27 36
REMARK SMILES IDX 29 37 28 38
REMARK H PARENT 17 4 13 19 21 29
ROOT
ATOM      1  C   UNL     1      19.081  42.024  40.506  1.00  0.00    +0.219 C 
ATOM      2  N   UNL     1      20.443  41.699  40.509  1.00  0.00    -0.356 N 
ATOM      3  O   UNL     1      18.286  41.226  39.980  1.00  0.00    -0.275 OA
ATOM      4  H   UNL     1      21.119  42.343  40.944  1.00  0.00    +0.163 HD
ENDROOT
BRANCH   1   5
ATOM      5  C   UNL     1      18.567  43.273  41.138  1.00  0.00    +0.100 C 
BRANCH   5   6
ATOM      6  C   UNL     1      17.152  43.627  40.639  1.00  0.00    +0.010 C 
BRANCH   6   7
ATOM      7  C   UNL     1      16.419  44.720  41.405  1.00  0.00    +0.007 C 
BRANCH   7   8
ATOM      8  C   UNL     1      16.131  44.303  42.862  1.00  0.00    +0.056 C 
BRANCH   8   9
ATOM      9  C   UNL     1      14.648  43.951  43.141  1.00  0.00    +0.043 A 
ATOM     10  C   UNL     1      13.844  43.535  42.061  1.00  0.00    +0.024 A 
ATOM     11  N   UNL     1      14.136  44.021  44.384  1.00  0.00    -0.236 NA
ATOM     12  C   UNL     1      12.490  43.204  42.289  1.00  0.00    +0.009 A 
ATOM     13  C   UNL     1      12.818  43.705  44.622  1.00  0.00    +0.129 A 
ATOM     14  C   UNL     1      11.939  43.282  43.594  1.00  0.00    -0.005 A 
ATOM     15  N   UNL     1      12.357  43.811  45.997  1.00  0.00    -0.370 N 
ATOM     16  C   UNL     1      10.504  42.931  43.855  1.00  0.00    +0.041 C 
ATOM     17  C   UNL     1      10.921  44.034  46.186  1.00  0.00    +0.115 C 
ATOM     18  C   UNL     1       9.981  43.163  45.312  1.00  0.00    +0.026 C 
ATOM     19  H   UNL     1      13.004  43.733  46.795  1.00  0.00    +0.162 HD
ENDBRANCH   8   9
ENDBRANCH   7   8
ENDBRANCH   6   7
ENDBRANCH   5   6
ENDBRANCH   1   5
BRANCH   2  20
ATOM     20  C   UNL     1      20.905  40.488  39.916  1.00  0.00    +0.118 C 
BRANCH  20  21
ATOM     21  C   UNL     1      21.267  39.455  40.973  1.00  0.00    +0.052 C 
BRANCH  21  22
ATOM     22  C   UNL     1      20.201  38.365  41.018  1.00  0.00    +0.130 C 
BRANCH  22  23
ATOM     23  C   UNL     1      20.846  37.057  41.595  1.00  0.00    +0.064 C 
ATOM     24  O   UNL     1      21.770  37.130  42.485  1.00  0.00    -0.548 OA
ATOM     25  O   UNL     1      20.414  35.932  41.159  1.00  0.00    -0.548 OA
ENDBRANCH  22  23
BRANCH  22  26
ATOM     26  N   UNL     1      19.009  38.734  41.797  1.00  0.00    -0.342 N 
ATOM     27  C   UNL     1      17.735  38.249  41.502  1.00  0.00    +0.280 C 
ATOM     28  O   UNL     1      17.471  37.528  40.536  1.00  0.00    -0.267 OA
ATOM     29  H   UNL     1      19.119  39.378  42.592  1.00  0.00    +0.164 HD
BRANCH  27  30
ATOM     30  C   UNL     1      16.548  38.661  42.390  1.00  0.00    +0.182 A 
ATOM     31  S   UNL     1      16.643  39.361  44.065  1.00  0.00    -0.109 S 
ATOM     32  N   UNL     1      15.260  38.599  42.019  1.00  0.00    -0.231 NA
ATOM     33  C   UNL     1      14.862  39.512  44.205  1.00  0.00    +0.055 A 
ATOM     34  C   UNL     1      14.322  39.047  42.996  1.00  0.00    +0.082 A 
ATOM     35  C   UNL     1      14.018  39.975  45.232  1.00  0.00    +0.021 A 
ATOM     36  C   UNL     1      12.908  39.050  42.815  1.00  0.00    +0.030 A 
ATOM     37  C   UNL     1      12.616  39.975  45.049  1.00  0.00    +0.002 A 
ATOM     38  C   UNL     1      12.056  39.510  43.833  1.00  0.00    +0.002 A 
ENDBRANCH  27  30
ENDBRANCH  22  26
ENDBRANCH  21  22
ENDBRANCH  20  21
ENDBRANCH   2  20
TORSDOF 11
ENDMDL
MODEL 10
REMARK VINA RESULT:    -8.158      4.052      6.975
REMARK INTER + INTRA:         -14.671
REMARK INTER:                 -12.174
REMARK INTRA:                  -2.497
REMARK UNBOUND:                -1.267
REMARK SMILES O=C(CCCCc1ccc2c(n1)NCCC2)NCC[C@H](NC(=O)c1nc2ccccc2s1)C(=O)[O-]
REMARK SMILES IDX 2 1 17 2 1 3 3 5 4 6 5 7 6 8 7 9 8 10 12 11 9 12 11 13 10 14
REMARK SMILES IDX 13 15 16 16 14 17 15 18 18 20 19 21 20 22 33 23 34 24 35 25
REMARK SMILES IDX 21 26 22 27 23 28 24 30 32 31 25 32 31 33 26 34 30 35 27 36
REMARK SMILES IDX 29 37 28 38
REMARK H PARENT 17 4 13 19 21 29
ROOT
ATOM      1  C   UNL     1      18.445  41.919  40.731  1.00  0.00    +0.219 C 
ATOM      2  N   UNL     1      19.730  41.581  40.291  1.00  0.00    -0.356 N 
ATOM      3  O   UNL     1      17.896  41.184  41.569  1.00  0.00    -0.275 OA
ATOM      4  H   UNL     1      20.205  42.179  39.600  1.00  0.00    +0.163 HD
ENDROOT
BRANCH   1   5
ATOM      5  C   UNL     1      17.741  43.141  40.245  1.00  0.00    +0.100 C 
BRANCH   5   6
ATOM      6  C   UNL     1      17.761  44.270  41.294  1.00  0.00    +0.010 C 
BRANCH   6   7
ATOM      7  C   UNL     1      16.409  44.837  41.704  1.00  0.00    +0.007 C 
BRANCH   7   8
ATOM      8  C   UNL     1      15.276  43.807  41.518  1.00  0.00    +0.056 C 
BRANCH   8   9
ATOM      9  C   UNL     1      14.246  43.779  42.674  1.00  0.00    +0.043 A 
ATOM     10  C   UNL     1      14.713  43.962  43.991  1.00  0.00    +0.024 A 
ATOM     11  N   UNL     1      12.933  43.602  42.435  1.00  0.00    -0.236 NA
ATOM     12  C   UNL     1      13.794  43.945  45.063  1.00  0.00    +0.009 A 
ATOM     13  C   UNL     1      12.025  43.579  43.469  1.00  0.00    +0.129 A 
ATOM     14  C   UNL     1      12.408  43.751  44.823  1.00  0.00    -0.005 A 
ATOM     15  N   UNL     1      10.629  43.381  43.111  1.00  0.00    -0.370 N 
ATOM     16  C   UNL     1      11.418  43.734  45.949  1.00  0.00    +0.041 C 
ATOM     17  C   UNL     1       9.768  42.808  44.148  1.00  0.00    +0.115 C 
ATOM     18  C   UNL     1       9.936  43.400  45.571  1.00  0.00    +0.026 C 
ATOM     19  H   UNL     1      10.266  43.632  42.180  1.00  0.00    +0.162 HD
ENDBRANCH   8   9
ENDBRANCH   7   8
ENDBRANCH   6   7
ENDBRANCH   5   6
ENDBRANCH   1   5
BRANCH   2  20
ATOM     20  C   UNL     1      20.388  40.418  40.787  1.00  0.00    +0.118 C 
BRANCH  20  21
ATOM     21  C   UNL     1      20.524  39.353  39.708  1.00  0.00    +0.052 C 
BRANCH  21  22
ATOM     22  C   UNL     1      19.790  38.086  40.134  1.00  0.00    +0.130 C 
BRANCH  22  23
ATOM     23  C   UNL     1      20.848  37.027  40.600  1.00  0.00    +0.064 C 
ATOM     24  O   UNL     1      20.478  35.993  41.268  1.00  0.00    -0.548 OA
ATOM     25  O   UNL     1      22.075  37.225  40.285  1.00  0.00    -0.548 OA
ENDBRANCH  22  23
BRANCH  22  26
ATOM     26  N   UNL     1      18.789  38.307  41.189  1.00  0.00    -0.342 N 
ATOM     27  C   UNL     1      17.524  37.720  41.164  1.00  0.00    +0.280 C 
ATOM     28  O   UNL     1      17.098  37.024  40.239  1.00  0.00    -0.267 OA
ATOM     29  H   UNL     1      19.032  38.921  41.979  1.00  0.00    +0.164 HD
BRANCH  27  30
ATOM     30  C   UNL     1      16.550  37.980  42.327  1.00  0.00    +0.182 A 
ATOM     31  S   UNL     1      16.297  36.921  43.783  1.00  0.00    -0.109 S 
ATOM     32  N   UNL     1      15.775  39.069  42.444  1.00  0.00    -0.231 NA
ATOM     33  C   UNL     1      15.081  38.027  44.494  1.00  0.00    +0.055 A 
ATOM     34  C   UNL     1      14.957  39.112  43.612  1.00  0.00    +0.082 A 
ATOM     35  C   UNL     1      14.315  37.977  45.675  1.00  0.00    +0.021 A 
ATOM     36  C   UNL     1      14.049  40.166  43.923  1.00  0.00    +0.030 A 
ATOM     37  C   UNL     1      13.415  39.024  45.979  1.00  0.00    +0.002 A 
ATOM     38  C   UNL     1      13.281  40.126  45.098  1.00  0.00    +0.002 A 
ENDBRANCH  27  30
ENDBRANCH  22  26
ENDBRANCH  21  22
ENDBRANCH  20  21
ENDBRANCH   2  20
TORSDOF 11
ENDMDL
MODEL 11
REMARK VINA RESULT:    -8.126      3.407      6.640
REMARK INTER + INTRA:         -14.619
REMARK INTER:                 -11.932
REMARK INTRA:                  -2.687
REMARK UNBOUND:                -1.267
REMARK SMILES O=C(CCCCc1ccc2c(n1)NCCC2)NCC[C@H](NC(=O)c1nc2ccccc2s1)C(=O)[O-]
REMARK SMILES IDX 2 1 17 2 1 3 3 5 4 6 5 7 6 8 7 9 8 10 12 11 9 12 11 13 10 14
REMARK SMILES IDX 13 15 16 16 14 17 15 18 18 20 19 21 20 22 33 23 34 24 35 25
REMARK SMILES IDX 21 26 22 27 23 28 24 30 32 31 25 32 31 33 26 34 30 35 27 36
REMARK SMILES IDX 29 37 28 38
REMARK H PARENT 17 4 13 19 21 29
ROOT
ATOM      1  C   UNL     1      19.984  42.216  41.877  1.00  0.00    +0.219 C 
ATOM      2  N   UNL     1      21.288  41.790  41.602  1.00  0.00    -0.356 N 
ATOM      3  O   UNL     1      19.214  41.427  42.453  1.00  0.00    -0.275 OA
ATOM      4  H   UNL     1      21.943  42.430  41.130  1.00  0.00    +0.163 HD
ENDROOT
BRANCH   1   5
ATOM      5  C   UNL     1      19.511  43.586  41.527  1.00  0.00    +0.100 C 
BRANCH   5   6
ATOM      6  C   UNL     1      18.149  43.556  40.805  1.00  0.00    +0.010 C 
BRANCH   6   7
ATOM      7  C   UNL     1      17.058  44.449  41.381  1.00  0.00    +0.007 C 
BRANCH   7   8
ATOM      8  C   UNL     1      15.660  44.051  40.864  1.00  0.00    +0.056 C 
BRANCH   8   9
ATOM      9  C   UNL     1      14.714  43.492  41.956  1.00  0.00    +0.043 A 
ATOM     10  C   UNL     1      15.261  42.663  42.955  1.00  0.00    +0.024 A 
ATOM     11  N   UNL     1      13.403  43.800  41.967  1.00  0.00    -0.236 NA
ATOM     12  C   UNL     1      14.421  42.143  43.964  1.00  0.00    +0.009 A 
ATOM     13  C   UNL     1      12.571  43.299  42.942  1.00  0.00    +0.129 A 
ATOM     14  C   UNL     1      13.036  42.455  43.981  1.00  0.00    -0.005 A 
ATOM     15  N   UNL     1      11.171  43.687  42.871  1.00  0.00    -0.370 N 
ATOM     16  C   UNL     1      12.130  41.915  45.048  1.00  0.00    +0.041 C 
ATOM     17  C   UNL     1      10.211  42.774  43.498  1.00  0.00    +0.115 C 
ATOM     18  C   UNL     1      10.605  42.236  44.898  1.00  0.00    +0.026 C 
ATOM     19  H   UNL     1      10.870  44.555  42.406  1.00  0.00    +0.162 HD
ENDBRANCH   8   9
ENDBRANCH   7   8
ENDBRANCH   6   7
ENDBRANCH   5   6
ENDBRANCH   1   5
BRANCH   2  20
ATOM     20  C   UNL     1      21.721  40.482  41.966  1.00  0.00    +0.118 C 
BRANCH  20  21
ATOM     21  C   UNL     1      22.181  39.690  40.751  1.00  0.00    +0.052 C 
BRANCH  21  22
ATOM     22  C   UNL     1      21.083  38.725  40.315  1.00  0.00    +0.130 C 
BRANCH  22  23
ATOM     23  C   UNL     1      21.695  37.286  40.201  1.00  0.00    +0.064 C 
ATOM     24  O   UNL     1      21.531  36.437  41.151  1.00  0.00    -0.548 OA
ATOM     25  O   UNL     1      22.347  36.994  39.137  1.00  0.00    -0.548 OA
ENDBRANCH  22  23
BRANCH  22  26
ATOM     26  N   UNL     1      19.913  38.714  41.208  1.00  0.00    -0.342 N 
ATOM     27  C   UNL     1      18.649  38.298  40.791  1.00  0.00    +0.280 C 
ATOM     28  O   UNL     1      18.371  37.967  39.636  1.00  0.00    -0.267 OA
ATOM     29  H   UNL     1      20.034  39.027  42.181  1.00  0.00    +0.164 HD
BRANCH  27  30
ATOM     30  C   UNL     1      17.489  38.288  41.802  1.00  0.00    +0.182 A 
ATOM     31  S   UNL     1      17.611  37.951  43.584  1.00  0.00    -0.109 S 
ATOM     32  N   UNL     1      16.213  38.576  41.502  1.00  0.00    -0.231 NA
ATOM     33  C   UNL     1      15.854  38.193  43.846  1.00  0.00    +0.055 A 
ATOM     34  C   UNL     1      15.302  38.520  42.598  1.00  0.00    +0.082 A 
ATOM     35  C   UNL     1      15.036  38.112  44.989  1.00  0.00    +0.021 A 
ATOM     36  C   UNL     1      13.903  38.773  42.497  1.00  0.00    +0.030 A 
ATOM     37  C   UNL     1      13.648  38.362  44.884  1.00  0.00    +0.002 A 
ATOM     38  C   UNL     1      13.077  38.695  43.631  1.00  0.00    +0.002 A 
ENDBRANCH  27  30
ENDBRANCH  22  26
ENDBRANCH  21  22
ENDBRANCH  20  21
ENDBRANCH   2  20
TORSDOF 11
ENDMDL
MODEL 12
REMARK VINA RESULT:    -8.123      4.009      7.271
REMARK INTER + INTRA:         -14.613
REMARK INTER:                 -11.803
REMARK INTRA:                  -2.810
REMARK UNBOUND:                -1.267
REMARK SMILES O=C(CCCCc1ccc2c(n1)NCCC2)NCC[C@H](NC(=O)c1nc2ccccc2s1)C(=O)[O-]
REMARK SMILES IDX 2 1 17 2 1 3 3 5 4 6 5 7 6 8 7 9 8 10 12 11 9 12 11 13 10 14
REMARK SMILES IDX 13 15 16 16 14 17 15 18 18 20 19 21 20 22 33 23 34 24 35 25
REMARK SMILES IDX 21 26 22 27 23 28 24 30 32 31 25 32 31 33 26 34 30 35 27 36
REMARK SMILES IDX 29 37 28 38
REMARK H PARENT 17 4 13 19 21 29
ROOT
ATOM      1  C   UNL     1      18.357  41.958  40.910  1.00  0.00    +0.219 C 
ATOM      2  N   UNL     1      19.663  41.574  40.585  1.00  0.00    -0.356 N 
ATOM      3  O   UNL     1      17.759  41.325  41.798  1.00  0.00    -0.275 OA
ATOM      4  H   UNL     1      20.178  42.088  39.856  1.00  0.00    +0.163 HD
ENDROOT
BRANCH   1   5
ATOM      5  C   UNL     1      17.686  43.112  40.246  1.00  0.00    +0.100 C 
BRANCH   5   6
ATOM      6  C   UNL     1      17.430  44.271  41.230  1.00  0.00    +0.010 C 
BRANCH   6   7
ATOM      7  C   UNL     1      16.009  44.814  41.282  1.00  0.00    +0.007 C 
BRANCH   7   8
ATOM      8  C   UNL     1      14.962  43.683  41.210  1.00  0.00    +0.056 C 
BRANCH   8   9
ATOM      9  C   UNL     1      14.030  43.599  42.445  1.00  0.00    +0.043 A 
ATOM     10  C   UNL     1      14.619  43.512  43.722  1.00  0.00    +0.024 A 
ATOM     11  N   UNL     1      12.691  43.626  42.312  1.00  0.00    -0.236 NA
ATOM     12  C   UNL     1      13.793  43.438  44.865  1.00  0.00    +0.009 A 
ATOM     13  C   UNL     1      11.872  43.552  43.415  1.00  0.00    +0.129 A 
ATOM     14  C   UNL     1      12.379  43.458  44.736  1.00  0.00    -0.005 A 
ATOM     15  N   UNL     1      10.438  43.588  43.171  1.00  0.00    -0.370 N 
ATOM     16  C   UNL     1      11.486  43.384  45.938  1.00  0.00    +0.041 C 
ATOM     17  C   UNL     1       9.590  42.967  44.192  1.00  0.00    +0.115 C 
ATOM     18  C   UNL     1       9.948  43.301  45.663  1.00  0.00    +0.026 C 
ATOM     19  H   UNL     1      10.042  44.026  42.328  1.00  0.00    +0.162 HD
ENDBRANCH   8   9
ENDBRANCH   7   8
ENDBRANCH   6   7
ENDBRANCH   5   6
ENDBRANCH   1   5
BRANCH   2  20
ATOM     20  C   UNL     1      20.288  40.479  41.250  1.00  0.00    +0.118 C 
BRANCH  20  21
ATOM     21  C   UNL     1      20.526  39.314  40.300  1.00  0.00    +0.052 C 
BRANCH  21  22
ATOM     22  C   UNL     1      19.697  38.110  40.738  1.00  0.00    +0.130 C 
BRANCH  22  23
ATOM     23  C   UNL     1      20.627  37.117  41.517  1.00  0.00    +0.064 C 
ATOM     24  O   UNL     1      21.321  37.530  42.516  1.00  0.00    -0.548 OA
ATOM     25  O   UNL     1      20.659  35.896  41.129  1.00  0.00    -0.548 OA
ENDBRANCH  22  23
BRANCH  22  26
ATOM     26  N   UNL     1      18.526  38.463  41.557  1.00  0.00    -0.342 N 
ATOM     27  C   UNL     1      17.438  37.608  41.726  1.00  0.00    +0.280 C 
ATOM     28  O   UNL     1      17.316  36.517  41.163  1.00  0.00    -0.267 OA
ATOM     29  H   UNL     1      18.510  39.380  42.025  1.00  0.00    +0.164 HD
BRANCH  27  30
ATOM     30  C   UNL     1      16.270  38.045  42.628  1.00  0.00    +0.182 A 
ATOM     31  S   UNL     1      16.140  37.799  44.424  1.00  0.00    -0.109 S 
ATOM     32  N   UNL     1      15.190  38.719  42.203  1.00  0.00    -0.231 NA
ATOM     33  C   UNL     1      14.551  38.623  44.517  1.00  0.00    +0.055 A 
ATOM     34  C   UNL     1      14.234  39.036  43.214  1.00  0.00    +0.082 A 
ATOM     35  C   UNL     1      13.671  38.888  45.584  1.00  0.00    +0.021 A 
ATOM     36  C   UNL     1      13.011  39.730  42.979  1.00  0.00    +0.030 A 
ATOM     37  C   UNL     1      12.459  39.575  45.346  1.00  0.00    +0.002 A 
ATOM     38  C   UNL     1      12.126  40.000  44.036  1.00  0.00    +0.002 A 
ENDBRANCH  27  30
ENDBRANCH  22  26
ENDBRANCH  21  22
ENDBRANCH  20  21
ENDBRANCH   2  20
TORSDOF 11
ENDMDL
MODEL 13
REMARK VINA RESULT:    -8.065      1.480      1.992
REMARK INTER + INTRA:         -14.518
REMARK INTER:                 -12.775
REMARK INTRA:                  -1.743
REMARK UNBOUND:                -1.267
REMARK SMILES O=C(CCCCc1ccc2c(n1)NCCC2)NCC[C@H](NC(=O)c1nc2ccccc2s1)C(=O)[O-]
REMARK SMILES IDX 2 1 17 2 1 3 3 5 4 6 5 7 6 8 7 9 8 10 12 11 9 12 11 13 10 14
REMARK SMILES IDX 13 15 16 16 14 17 15 18 18 20 19 21 20 22 33 23 34 24 35 25
REMARK SMILES IDX 21 26 22 27 23 28 24 30 32 31 25 32 31 33 26 34 30 35 27 36
REMARK SMILES IDX 29 37 28 38
REMARK H PARENT 17 4 13 19 21 29
ROOT
ATOM      1  C   UNL     1      18.826  43.025  40.688  1.00  0.00    +0.219 C 
ATOM      2  N   UNL     1      19.156  41.699  40.387  1.00  0.00    -0.356 N 
ATOM      3  O   UNL     1      19.733  43.787  41.070  1.00  0.00    -0.275 OA
ATOM      4  H   UNL     1      18.421  41.053  40.064  1.00  0.00    +0.163 HD
ENDROOT
BRANCH   1   5
ATOM      5  C   UNL     1      17.438  43.547  40.537  1.00  0.00    +0.100 C 
BRANCH   5   6
ATOM      6  C   UNL     1      17.071  44.536  41.662  1.00  0.00    +0.010 C 
BRANCH   6   7
ATOM      7  C   UNL     1      16.367  43.948  42.877  1.00  0.00    +0.007 C 
BRANCH   7   8
ATOM      8  C   UNL     1      15.116  43.139  42.478  1.00  0.00    +0.056 C 
BRANCH   8   9
ATOM      9  C   UNL     1      15.180  41.639  42.861  1.00  0.00    +0.043 A 
ATOM     10  C   UNL     1      14.036  41.044  43.430  1.00  0.00    +0.024 A 
ATOM     11  N   UNL     1      16.291  40.910  42.645  1.00  0.00    -0.236 NA
ATOM     12  C   UNL     1      14.067  39.678  43.785  1.00  0.00    +0.009 A 
ATOM     13  C   UNL     1      16.338  39.579  42.989  1.00  0.00    +0.129 A 
ATOM     14  C   UNL     1      15.236  38.902  43.569  1.00  0.00    -0.005 A 
ATOM     15  N   UNL     1      17.582  38.875  42.717  1.00  0.00    -0.370 N 
ATOM     16  C   UNL     1      15.285  37.449  43.937  1.00  0.00    +0.041 C 
ATOM     17  C   UNL     1      17.855  37.696  43.542  1.00  0.00    +0.115 C 
ATOM     18  C   UNL     1      16.662  36.728  43.755  1.00  0.00    +0.026 C 
ATOM     19  H   UNL     1      18.235  39.188  41.984  1.00  0.00    +0.162 HD
ENDBRANCH   8   9
ENDBRANCH   7   8
ENDBRANCH   6   7
ENDBRANCH   5   6
ENDBRANCH   1   5
BRANCH   2  20
ATOM     20  C   UNL     1      20.496  41.232  40.520  1.00  0.00    +0.118 C 
BRANCH  20  21
ATOM     21  C   UNL     1      20.626  39.782  40.077  1.00  0.00    +0.052 C 
BRANCH  21  22
ATOM     22  C   UNL     1      20.986  38.904  41.272  1.00  0.00    +0.130 C 
BRANCH  22  23
ATOM     23  C   UNL     1      20.471  37.449  40.998  1.00  0.00    +0.064 C 
ATOM     24  O   UNL     1      21.196  36.437  41.314  1.00  0.00    -0.548 OA
ATOM     25  O   UNL     1      19.313  37.313  40.466  1.00  0.00    -0.548 OA
ENDBRANCH  22  23
BRANCH  22  26
ATOM     26  N   UNL     1      22.424  38.888  41.583  1.00  0.00    -0.342 N 
ATOM     27  C   UNL     1      22.928  39.220  42.840  1.00  0.00    +0.280 C 
ATOM     28  O   UNL     1      22.239  39.620  43.783  1.00  0.00    -0.267 OA
ATOM     29  H   UNL     1      23.086  38.620  40.842  1.00  0.00    +0.164 HD
BRANCH  27  30
ATOM     30  C   UNL     1      24.444  39.144  43.088  1.00  0.00    +0.182 A 
ATOM     31  S   UNL     1      25.284  39.254  44.697  1.00  0.00    -0.109 S 
ATOM     32  N   UNL     1      25.364  38.938  42.133  1.00  0.00    -0.231 NA
ATOM     33  C   UNL     1      26.908  39.041  43.971  1.00  0.00    +0.055 A 
ATOM     34  C   UNL     1      26.715  38.889  42.589  1.00  0.00    +0.082 A 
ATOM     35  C   UNL     1      28.205  39.007  44.518  1.00  0.00    +0.021 A 
ATOM     36  C   UNL     1      27.846  38.697  41.742  1.00  0.00    +0.030 A 
ATOM     37  C   UNL     1      29.324  38.818  43.674  1.00  0.00    +0.002 A 
ATOM     38  C   UNL     1      29.144  38.662  42.277  1.00  0.00    +0.002 A 
ENDBRANCH  27  30
ENDBRANCH  22  26
ENDBRANCH  21  22
ENDBRANCH  20  21
ENDBRANCH   2  20
TORSDOF 11
ENDMDL
MODEL 14
REMARK VINA RESULT:    -7.985      5.378      8.513
REMARK INTER + INTRA:         -14.387
REMARK INTER:                 -13.303
REMARK INTRA:                  -1.084
REMARK UNBOUND:                -1.267
REMARK SMILES O=C(CCCCc1ccc2c(n1)NCCC2)NCC[C@H](NC(=O)c1nc2ccccc2s1)C(=O)[O-]
REMARK SMILES IDX 2 1 17 2 1 3 3 5 4 6 5 7 6 8 7 9 8 10 12 11 9 12 11 13 10 14
REMARK SMILES IDX 13 15 16 16 14 17 15 18 18 20 19 21 20 22 33 23 34 24 35 25
REMARK SMILES IDX 21 26 22 27 23 28 24 30 32 31 25 32 31 33 26 34 30 35 27 36
REMARK SMILES IDX 29 37 28 38
REMARK H PARENT 17 4 13 19 21 29
ROOT
ATOM      1  C   UNL     1      22.735  42.310  40.190  1.00  0.00    +0.219 C 
ATOM      2  N   UNL     1      21.496  41.660  40.160  1.00  0.00    -0.356 N 
ATOM      3  O   UNL     1      23.766  41.614  40.212  1.00  0.00    -0.275 OA
ATOM      4  H   UNL     1      20.630  42.217  40.136  1.00  0.00    +0.163 HD
ENDROOT
BRANCH   1   5
ATOM      5  C   UNL     1      22.847  43.796  40.166  1.00  0.00    +0.100 C 
BRANCH   5   6
ATOM      6  C   UNL     1      23.085  44.377  41.574  1.00  0.00    +0.010 C 
BRANCH   6   7
ATOM      7  C   UNL     1      24.441  45.027  41.817  1.00  0.00    +0.007 C 
BRANCH   7   8
ATOM      8  C   UNL     1      24.374  46.561  41.676  1.00  0.00    +0.056 C 
BRANCH   8   9
ATOM      9  C   UNL     1      24.715  47.085  40.259  1.00  0.00    +0.043 A 
ATOM     10  C   UNL     1      23.840  48.014  39.661  1.00  0.00    +0.024 A 
ATOM     11  N   UNL     1      25.826  46.682  39.615  1.00  0.00    -0.236 NA
ATOM     12  C   UNL     1      24.130  48.511  38.371  1.00  0.00    +0.009 A 
ATOM     13  C   UNL     1      26.121  47.154  38.356  1.00  0.00    +0.129 A 
ATOM     14  C   UNL     1      25.295  48.086  37.679  1.00  0.00    -0.005 A 
ATOM     15  N   UNL     1      27.343  46.661  37.741  1.00  0.00    -0.370 N 
ATOM     16  C   UNL     1      25.620  48.606  36.311  1.00  0.00    +0.041 C 
ATOM     17  C   UNL     1      27.388  46.683  36.277  1.00  0.00    +0.115 C 
ATOM     18  C   UNL     1      26.869  47.981  35.604  1.00  0.00    +0.026 C 
ATOM     19  H   UNL     1      28.133  46.314  38.303  1.00  0.00    +0.162 HD
ENDBRANCH   8   9
ENDBRANCH   7   8
ENDBRANCH   6   7
ENDBRANCH   5   6
ENDBRANCH   1   5
BRANCH   2  20
ATOM     20  C   UNL     1      21.418  40.237  40.163  1.00  0.00    +0.118 C 
BRANCH  20  21
ATOM     21  C   UNL     1      20.358  39.740  41.136  1.00  0.00    +0.052 C 
BRANCH  21  22
ATOM     22  C   UNL     1      20.855  38.487  41.849  1.00  0.00    +0.130 C 
BRANCH  22  23
ATOM     23  C   UNL     1      20.426  37.231  41.015  1.00  0.00    +0.064 C 
ATOM     24  O   UNL     1      19.617  37.358  40.025  1.00  0.00    -0.548 OA
ATOM     25  O   UNL     1      20.915  36.094  41.348  1.00  0.00    -0.548 OA
ENDBRANCH  22  23
BRANCH  22  26
ATOM     26  N   UNL     1      22.308  38.474  42.083  1.00  0.00    -0.342 N 
ATOM     27  C   UNL     1      22.932  39.312  43.007  1.00  0.00    +0.280 C 
ATOM     28  O   UNL     1      22.350  40.180  43.662  1.00  0.00    -0.267 OA
ATOM     29  H   UNL     1      22.889  37.819  41.540  1.00  0.00    +0.164 HD
BRANCH  27  30
ATOM     30  C   UNL     1      24.453  39.208  43.210  1.00  0.00    +0.182 A 
ATOM     31  S   UNL     1      25.341  39.309  44.793  1.00  0.00    -0.109 S 
ATOM     32  N   UNL     1      25.340  38.981  42.229  1.00  0.00    -0.231 NA
ATOM     33  C   UNL     1      26.940  39.062  44.020  1.00  0.00    +0.055 A 
ATOM     34  C   UNL     1      26.703  38.909  42.646  1.00  0.00    +0.082 A 
ATOM     35  C   UNL     1      28.251  39.007  44.529  1.00  0.00    +0.021 A 
ATOM     36  C   UNL     1      27.805  38.692  41.767  1.00  0.00    +0.030 A 
ATOM     37  C   UNL     1      29.341  38.794  43.654  1.00  0.00    +0.002 A 
ATOM     38  C   UNL     1      29.117  38.635  42.264  1.00  0.00    +0.002 A 
ENDBRANCH  27  30
ENDBRANCH  22  26
ENDBRANCH  21  22
ENDBRANCH  20  21
ENDBRANCH   2  20
TORSDOF 11
ENDMDL
MODEL 15
REMARK VINA RESULT:    -7.942      3.479      6.570
REMARK INTER + INTRA:         -14.316
REMARK INTER:                 -12.347
REMARK INTRA:                  -1.969
REMARK UNBOUND:                -1.267
REMARK SMILES O=C(CCCCc1ccc2c(n1)NCCC2)NCC[C@H](NC(=O)c1nc2ccccc2s1)C(=O)[O-]
REMARK SMILES IDX 2 1 17 2 1 3 3 5 4 6 5 7 6 8 7 9 8 10 12 11 9 12 11 13 10 14
REMARK SMILES IDX 13 15 16 16 14 17 15 18 18 20 19 21 20 22 33 23 34 24 35 25
REMARK SMILES IDX 21 26 22 27 23 28 24 30 32 31 25 32 31 33 26 34 30 35 27 36
REMARK SMILES IDX 29 37 28 38
REMARK H PARENT 17 4 13 19 21 29
ROOT
ATOM      1  C   UNL     1      19.994  42.795  40.627  1.00  0.00    +0.219 C 
ATOM      2  N   UNL     1      20.390  41.490  40.312  1.00  0.00    -0.356 N 
ATOM      3  O   UNL     1      20.877  43.644  40.841  1.00  0.00    -0.275 OA
ATOM      4  H   UNL     1      19.675  40.772  40.126  1.00  0.00    +0.163 HD
ENDROOT
BRANCH   1   5
ATOM      5  C   UNL     1      18.558  43.192  40.682  1.00  0.00    +0.100 C 
BRANCH   5   6
ATOM      6  C   UNL     1      18.302  44.274  41.750  1.00  0.00    +0.010 C 
BRANCH   6   7
ATOM      7  C   UNL     1      16.949  44.972  41.696  1.00  0.00    +0.007 C 
BRANCH   7   8
ATOM      8  C   UNL     1      15.869  44.076  41.055  1.00  0.00    +0.056 C 
BRANCH   8   9
ATOM      9  C   UNL     1      14.833  43.513  42.059  1.00  0.00    +0.043 A 
ATOM     10  C   UNL     1      13.465  43.605  41.731  1.00  0.00    +0.024 A 
ATOM     11  N   UNL     1      15.220  42.932  43.210  1.00  0.00    -0.236 NA
ATOM     12  C   UNL     1      12.500  43.096  42.627  1.00  0.00    +0.009 A 
ATOM     13  C   UNL     1      14.292  42.434  44.095  1.00  0.00    +0.129 A 
ATOM     14  C   UNL     1      12.897  42.489  43.847  1.00  0.00    -0.005 A 
ATOM     15  N   UNL     1      14.806  41.825  45.311  1.00  0.00    -0.370 N 
ATOM     16  C   UNL     1      11.886  41.939  44.809  1.00  0.00    +0.041 C 
ATOM     17  C   UNL     1      13.902  41.810  46.464  1.00  0.00    +0.115 C 
ATOM     18  C   UNL     1      12.437  41.395  46.169  1.00  0.00    +0.026 C 
ATOM     19  H   UNL     1      15.755  41.425  45.360  1.00  0.00    +0.162 HD
ENDBRANCH   8   9
ENDBRANCH   7   8
ENDBRANCH   6   7
ENDBRANCH   5   6
ENDBRANCH   1   5
BRANCH   2  20
ATOM     20  C   UNL     1      21.771  41.143  40.246  1.00  0.00    +0.118 C 
BRANCH  20  21
ATOM     21  C   UNL     1      22.033  39.784  40.879  1.00  0.00    +0.052 C 
BRANCH  21  22
ATOM     22  C   UNL     1      20.992  38.778  40.399  1.00  0.00    +0.130 C 
BRANCH  22  23
ATOM     23  C   UNL     1      21.674  37.372  40.273  1.00  0.00    +0.064 C 
ATOM     24  O   UNL     1      21.501  36.486  41.188  1.00  0.00    -0.548 OA
ATOM     25  O   UNL     1      22.390  37.143  39.236  1.00  0.00    -0.548 OA
ENDBRANCH  22  23
BRANCH  22  26
ATOM     26  N   UNL     1      19.804  38.696  41.262  1.00  0.00    -0.342 N 
ATOM     27  C   UNL     1      18.570  38.235  40.807  1.00  0.00    +0.280 C 
ATOM     28  O   UNL     1      18.333  37.920  39.637  1.00  0.00    -0.267 OA
ATOM     29  H   UNL     1      19.888  38.990  42.246  1.00  0.00    +0.164 HD
BRANCH  27  30
ATOM     30  C   UNL     1      17.388  38.151  41.788  1.00  0.00    +0.182 A 
ATOM     31  S   UNL     1      17.397  37.363  43.426  1.00  0.00    -0.109 S 
ATOM     32  N   UNL     1      16.181  38.699  41.578  1.00  0.00    -0.231 NA
ATOM     33  C   UNL     1      15.689  37.799  43.751  1.00  0.00    +0.055 A 
ATOM     34  C   UNL     1      15.235  38.511  42.630  1.00  0.00    +0.082 A 
ATOM     35  C   UNL     1      14.830  37.561  44.841  1.00  0.00    +0.021 A 
ATOM     36  C   UNL     1      13.894  38.995  42.605  1.00  0.00    +0.030 A 
ATOM     37  C   UNL     1      13.501  38.041  44.811  1.00  0.00    +0.002 A 
ATOM     38  C   UNL     1      13.029  38.763  43.687  1.00  0.00    +0.002 A 
ENDBRANCH  27  30
ENDBRANCH  22  26
ENDBRANCH  21  22
ENDBRANCH  20  21
ENDBRANCH   2  20
TORSDOF 11
ENDMDL
